3    
Iteration 0 Energy -74.91937330
O       -0.1128260789    0.0513740463    0.0297496771
H        0.2881953041    0.7549837846    0.5589895756
H        0.2043231679   -0.7008850945   -0.4893864065
3    
Iteration 1 Energy -74.91127909
O       -0.0935026609    0.0500651331    0.0300215061
H        0.2790535397    0.7646413543    0.5653343164
H        0.1941439038   -0.7092338092   -0.4960029442
3    
Iteration 2 Energy -74.91130425
O       -0.0927840565    0.0500165116    0.0300315795
H        0.2785571569    0.7622633953    0.5635967929
H        0.1939242758   -0.7068072879   -0.4942754614
3    
Iteration 3 Energy -74.91130433
O       -0.0927376586    0.0500134284    0.0300321904
H        0.2785266718    0.7621140382    0.5634849878
H        0.1939111738   -0.7066549083   -0.4941642348
