3    
Iteration 0 Energy -74.92716997
O       -0.1327171501    0.0527212383    0.0294699221
H        0.2977052298    0.7468131276    0.5537379581
H        0.2146975741   -0.6940614649   -0.4838551230
3    
Iteration 1 Energy -74.91935264
O       -0.1135808710    0.0514250316    0.0297391210
H        0.2887020208    0.7572464468    0.5606474668
H        0.2045665972   -0.7031986311   -0.4910337971
3    
Iteration 2 Energy -74.91937327
O       -0.1127972680    0.0513720237    0.0297501152
H        0.2881744194    0.7548937166    0.5589261923
H        0.2043129413   -0.7007929504   -0.4893234846
3    
Iteration 3 Energy -74.91937330
O       -0.1128260789    0.0513740463    0.0297496771
H        0.2881953041    0.7549837846    0.5589895756
H        0.2043231679   -0.7008850945   -0.4893864065
