3    
Iteration 0 Energy -74.94072188
O       -0.3965384417    0.0705773687    0.0257538893
H        0.4174950274    0.5279149618    0.4044439477
H        0.3587164624   -0.4930192819   -0.3308455421
3    
Iteration 1 Energy -74.94844186
O       -0.3828045533    0.0696477154    0.0259474050
H        0.4117928251    0.5486097675    0.4189163561
H        0.3506839236   -0.5127844112   -0.3455114736
3    
Iteration 2 Energy -74.94847604
O       -0.3802894003    0.0694777341    0.0259829917
H        0.4103844971    0.5460743566    0.4170105624
H        0.3495763482   -0.5100789948   -0.3436412711
3    
Iteration 3 Energy -74.94847771
O       -0.3807402873    0.0695085413    0.0259767974
H        0.4106371066    0.5465288269    0.4173514308
H        0.3497740215   -0.5105642479   -0.3439759472
3    
Iteration 4 Energy -74.94847771
O       -0.3807354982    0.0695085471    0.0259770476
H        0.4106345627    0.5465239510    0.4173470296
H        0.3497710418   -0.5105593536   -0.3439718013
