3    
Iteration 0 Energy -74.83800869
O        0.0000000000    0.0000000000    0.0000000000
H        0.2760264000    0.8822741000    0.6495351000
H        0.1036576000   -0.7768012000   -0.5501827000
3    
Iteration 1 Energy -74.90670951
O       -0.4398992298   -0.0007700725   -0.0280896970
H        0.4465904135    0.5410549717    0.4156878284
H        0.3729928164   -0.4348119991   -0.2882457314
3    
Iteration 2 Energy -74.92045487
O       -0.4307198707    0.0641259876    0.0189907976
H        0.4335433479    0.4958731551    0.3824928100
H        0.3768602328   -0.4545262504   -0.3021312163
3    
Iteration 3 Energy -74.92064557
O       -0.4261557546    0.0742461353    0.0265288513
H        0.4298920994    0.4873883064    0.3761835174
H        0.3759461328   -0.4561615439   -0.3033599880
3    
Iteration 4 Energy -74.92067834
O       -0.4282604655    0.0726485247    0.0252522458
H        0.4312359914    0.4898803236    0.3780532351
H        0.3767060779   -0.4570559457   -0.3039531076
3    
Iteration 5 Energy -74.92067839
O       -0.4281788462    0.0727167413    0.0253062759
H        0.4311827730    0.4897805263    0.3779780897
H        0.3766765492   -0.4570243587   -0.3039320035
