3    
Iteration 0 Energy -74.93145697
O       -0.4123103084    0.0716441741    0.0255311151
H        0.4243215254    0.5089785430    0.3913037968
H        0.3676652489   -0.4751497526   -0.3174825896
3    
Iteration 1 Energy -74.94067240
O       -0.3990536686    0.0707468168    0.0257179307
H        0.4188938809    0.5302845726    0.4062315599
H        0.3598352613   -0.4955584060   -0.3325971786
3    
Iteration 2 Energy -74.94071999
O       -0.3960482468    0.0705436168    0.0257604335
H        0.4172223305    0.5274533609    0.4040973583
H        0.3585005213   -0.4925239726   -0.3305054862
3    
Iteration 3 Energy -74.94072188
O       -0.3965446982    0.0705774898    0.0257536080
H        0.4174984757    0.5279209440    0.4044491377
H        0.3587201151   -0.4930254085   -0.3308504459
3    
Iteration 4 Energy -74.94072188
O       -0.3965384417    0.0705773687    0.0257538893
H        0.4174950274    0.5279149618    0.4044439477
H        0.3587164624   -0.4930192819   -0.3308455421
