3    
Iteration 0 Energy -74.96125557
O       -0.2463166823    0.0604132436    0.0278715692
H        0.3507421355    0.6779392428    0.5077411331
H        0.2752386035   -0.6328789697   -0.4362603274
3    
Iteration 1 Energy -74.95759118
O       -0.2288365784    0.0592295186    0.0281175483
H        0.3428247062    0.6927997402    0.5178923301
H        0.2656763528   -0.6465557521   -0.4466574900
3    
Iteration 2 Energy -74.95759878
O       -0.2280164454    0.0591741954    0.0281291283
H        0.3423265015    0.6912831766    0.5167728034
H        0.2653550705   -0.6449838856   -0.4455495257
3    
Iteration 3 Energy -74.95759910
O       -0.2281545201    0.0591837381    0.0281272196
H        0.3424112670    0.6915395932    0.5169604669
H        0.2654089309   -0.6452498593   -0.4457352663
