3    
Iteration 0 Energy -74.84937154
O       -0.0859698290   -0.0636457750    0.0449685530
H        0.1734721260    0.7656188270    0.2795108550
H        0.7924896470   -0.4044842930   -0.9904724410
3    
Iteration 1 Energy -74.84795459
O       -0.1415460294   -0.1021068678    0.0747232427
H        0.2521325007    0.7019628023    0.1684146237
H        0.7809475759   -0.3534257233   -0.9498016784
3    
Iteration 2 Energy -74.85159298
O       -0.1137650283   -0.0784386071    0.0609195258
H        0.2218700476    0.7409538339    0.2212929750
H        0.7821882864   -0.3847553622   -0.9693389894
3    
Iteration 3 Energy -74.85150522
O       -0.1084078241   -0.0705012451    0.0614469769
H        0.2230212005    0.7499514990    0.2257245178
H        0.7789340924   -0.3932228615   -0.9718184764
3    
Iteration 4 Energy -74.85143434
O       -0.1082551944   -0.0677016606    0.0622598326
H        0.2266337664    0.7518393394    0.2241254259
H        0.7770514807   -0.3955665591   -0.9714253495
3    
Iteration 5 Energy -74.85141399
O       -0.1080579577   -0.0651199901    0.0631082885
H        0.2305377731    0.7533569146    0.2226341450
H        0.7750008324   -0.3976161527   -0.9711039196
3    
Iteration 6 Energy -74.85140858
O       -0.1081172826   -0.0650370975    0.0630758342
H        0.2308586997    0.7532329435    0.2228559548
H        0.7748700177   -0.3975955996   -0.9711985885
3    
Iteration 7 Energy -74.85140722
O       -0.1084891765   -0.0647577176    0.0627102917
H        0.2324728987    0.7523076464    0.2244169663
H        0.7742487704   -0.3972725433   -0.9717962618
3    
Iteration 8 Energy -74.85140690
O       -0.1085442575   -0.0647772442    0.0626346046
H        0.2325838654    0.7521540674    0.2246684436
H        0.7742208017   -0.3971859644   -0.9718841394
