3    
Iteration 0 Energy -74.72183830
O       -0.0859698290   -0.0636457750    0.0449685530
H        0.2311258930    0.9498998500    0.3316313670
H        1.0434780680   -0.5018667270   -1.2863127260
3    
Iteration 1 Energy -74.72434465
O       -0.1416853963   -0.1020688607    0.0751591345
H        0.3114206975    0.8897865453    0.2207546328
H        1.0311884407   -0.4525985281   -1.2459696548
3    
Iteration 2 Energy -74.72485298
O       -0.1297756484   -0.0831890232    0.0728629029
H        0.3122732622    0.9109703550    0.2344252833
H        1.0248072380   -0.4726303549   -1.2516568552
3    
Iteration 3 Energy -74.72481419
O       -0.1263614165   -0.0721788590    0.0750375988
H        0.3219810213    0.9198306122    0.2327553801
H        1.0182461796   -0.4825655681   -1.2519092373
3    
Iteration 4 Energy -74.72477894
O       -0.1255832042   -0.0647360003    0.0774466371
H        0.3323539881    0.9239378176    0.2284902084
H        1.0126705047   -0.4883406029   -1.2509811490
3    
Iteration 5 Energy -74.72476632
O       -0.1260809861   -0.0627524787    0.0782148202
H        0.3368392049    0.9239459103    0.2269886588
H        1.0106767108   -0.4893364119   -1.2506144453
3    
Iteration 6 Energy -74.72476538
O       -0.1264819839   -0.0625264074    0.0781235246
H        0.3382649210    0.9232229539    0.2274860249
H        1.0101642823   -0.4890879702   -1.2508174636
