3    
Iteration 0 Energy -74.67196323
O       -0.0859698290   -0.0636457750    0.0449685530
H        0.3176065450    1.2263213840    0.4098121340
H        0.9807309630   -0.4775211190   -1.2123526540
3    
Iteration 1 Energy -74.67299065
O       -0.1463300571   -0.1029200346    0.0796861981
H        0.3762642647    1.1764542806    0.3249205526
H        0.9824334592   -0.3883797601   -1.1621787328
3    
Iteration 2 Energy -74.67498026
O       -0.1233339574   -0.0899780686    0.0652852409
H        0.3512131728    1.1929364555    0.3583776922
H        0.9844884139   -0.4178039155   -1.1812349142
3    
Iteration 3 Energy -74.67466583
O       -0.1218767418   -0.0900232965    0.0638698572
H        0.3485705350    1.1939808036    0.3615035875
H        0.9856737950   -0.4188030532   -1.1829454287
3    
Iteration 4 Energy -74.67451581
O       -0.1219180898   -0.0904317999    0.0636718921
H        0.3481539030    1.1939322114    0.3618724851
H        0.9861317334   -0.4183459752   -1.1831163634
3    
Iteration 5 Energy -74.67446339
O       -0.1219667860   -0.0906152596    0.0636116956
H        0.3480223126    1.1938742932    0.3619642454
H        0.9863119652   -0.4181046212   -1.1831479323
3    
Iteration 6 Energy -74.67444598
O       -0.1219727531   -0.0906416284    0.0636020484
H        0.3480093084    1.1938898660    0.3619856772
H        0.9863308913   -0.4180938443   -1.1831597204
3    
Iteration 7 Energy -74.67443981
O       -0.1219755973   -0.0906434578    0.0636036840
H        0.3480157239    1.1939013282    0.3619862073
H        0.9863272706   -0.4181034983   -1.1831618910
3    
Iteration 8 Energy -74.67443761
O       -0.1219767788   -0.0906425470    0.0636053281
H        0.3480199574    1.1939063816    0.3619850976
H        0.9863241781   -0.4181094805   -1.1831624288
3    
Iteration 9 Energy -74.67443683
O       -0.1219773019   -0.0906415796    0.0636063797
H        0.3480223034    1.1939085624    0.3619841182
H        0.9863223161   -0.4181126461   -1.1831625031
