3    
Iteration 0 Energy -74.79421726
O       -0.0859698290   -0.0636457750    0.0449685530
H        0.2022990090    0.8577593390    0.3055711110
H        0.9179838580   -0.4531755100   -1.1383925830
3    
Iteration 1 Energy -74.79581971
O       -0.1416545453   -0.1020824946    0.0749998020
H        0.2819244206    0.7960170420    0.1945079535
H        0.9060135111   -0.4030859950   -1.0978766350
3    
Iteration 2 Energy -74.79716220
O       -0.1206768156   -0.0777880014    0.0671125882
H        0.2690952515    0.8288250232    0.2281584365
H        0.9019391882   -0.4316372281   -1.1107582588
3    
Iteration 3 Energy -74.79705050
O       -0.1178175455   -0.0706282043    0.0687681504
H        0.2747837997    0.8352077478    0.2278536249
H        0.8976652311   -0.4384084837   -1.1114336214
3    
Iteration 4 Energy -74.79700324
O       -0.1170957890   -0.0657313108    0.0702800611
H        0.2812415220    0.8382762629    0.2255064215
H        0.8940754237   -0.4423911803   -1.1110159544
3    
Iteration 5 Energy -74.79698805
O       -0.1173093264   -0.0641618644    0.0707438954
H        0.2842881561    0.8386227471    0.2246930067
H        0.8926588066   -0.4433491362   -1.1108411423
3    
Iteration 6 Energy -74.79698510
O       -0.1175299146   -0.0639668022    0.0706670078
H        0.2851755715    0.8382449719    0.2250770122
H        0.8923253350   -0.4432577724   -1.1109946828
3    
Iteration 7 Energy -74.79698473
O       -0.1180201618   -0.0636744497    0.0702960404
H        0.2870216140    0.8371674863    0.2265815344
H        0.8916472648   -0.4428651816   -1.1115614066
