3    
Iteration 0 Energy -74.68373822
O       -0.0859698290   -0.0636457750    0.0449685530
H        0.1734721260    0.7656188270    0.2795108550
H        1.1062251740   -0.5262123350   -1.3602727970
3    
Iteration 1 Energy -74.68611699
O       -0.1387989164   -0.0927375746    0.0774460245
H        0.2596514588    0.7095300413    0.1657468345
H        1.0895500415   -0.4836220320   -1.3196295219
3    
Iteration 2 Energy -74.68662458
O       -0.1255733981   -0.0793783294    0.0704410955
H        0.2484424013    0.7302492413    0.1909564539
H        1.0885417662   -0.5006612369   -1.3287318493
3    
Iteration 3 Energy -74.68661260
O       -0.1228561800   -0.0728816246    0.0709307305
H        0.2524161417    0.7360608189    0.1924492074
H        1.0851962299   -0.5068153552   -1.3297230178
3    
Iteration 4 Energy -74.68659529
O       -0.1212276620   -0.0660375114    0.0723327736
H        0.2597865094    0.7406365259    0.1910723613
H        1.0806966923   -0.5125252269   -1.3297355751
3    
Iteration 5 Energy -74.68658532
O       -0.1209468175   -0.0623155240    0.0733100951
H        0.2653369519    0.7422015493    0.1896623271
H        1.0777809489   -0.5151686898   -1.3295191753
3    
Iteration 6 Energy -74.68658284
O       -0.1212181091   -0.0618670051    0.0733710953
H        0.2668438539    0.7417820053    0.1898047575
H        1.0771630743   -0.5151831491   -1.3296208599
3    
Iteration 7 Energy -74.68658283
O       -0.1215670391   -0.0616794545    0.0731957062
H        0.2682112788    0.7409845488    0.1906844977
H        1.0766537181   -0.5148781501   -1.3299729849
