3    
Iteration 0 Energy -74.94225642
O       -0.0859698290   -0.0636457750    0.0449685530
H        0.2311258930    0.9498998500    0.3316313670
H        0.6042483300   -0.3314474680   -0.7685922280
3    
Iteration 1 Energy -74.94302056
O       -0.1233557718   -0.0913244186    0.0645245622
H        0.2638995038    0.9153832402    0.2803324426
H        0.6088609604   -0.2692523071   -0.7368494601
3    
Iteration 2 Energy -74.94382503
O       -0.1077813963   -0.0797946343    0.0563782385
H        0.2499296626    0.9308489114    0.3026350604
H        0.6072564183   -0.2962478769   -0.7510057580
3    
Iteration 3 Energy -74.94382584
O       -0.1082612375   -0.0801505845    0.0566296339
H        0.2503526021    0.9303964361    0.3019678355
H        0.6073134338   -0.2954396082   -0.7505899931
