3    
Iteration 0 Energy -74.69269585
O       -0.0859698290   -0.0636457750    0.0449685530
H        0.2311258930    0.9498998500    0.3316313670
H        1.1062251740   -0.5262123350   -1.3602727970
3    
Iteration 1 Energy -74.69526613
O       -0.1411841352   -0.1003682591    0.0756570063
H        0.3128285534    0.8912088168    0.2202514748
H        1.0929809858   -0.4785055724   -1.3199270809
3    
Iteration 2 Energy -74.69562187
O       -0.1325605506   -0.0846470248    0.0746370083
H        0.3166171895    0.9075805584    0.2283290292
H        1.0867748310   -0.4945520628   -1.3234558493
3    
Iteration 3 Energy -74.69561632
O       -0.1287827335   -0.0716576039    0.0770006683
H        0.3282216331    0.9177068748    0.2262282340
H        1.0790836304   -0.5061099340   -1.3235872650
3    
Iteration 4 Energy -74.69558634
O       -0.1281029454   -0.0639916182    0.0794537938
H        0.3390344397    0.9216706583    0.2217565650
H        1.0733372507   -0.5119248227   -1.3225779713
3    
Iteration 5 Energy -74.69557645
O       -0.1286855681   -0.0618503107    0.0803468023
H        0.3440472162    0.9215230235    0.2200025327
H        1.0711220982   -0.5129216604   -1.3221474401
3    
Iteration 6 Energy -74.69557657
O       -0.1291308989   -0.0616555420    0.0802630775
H        0.3455856045    0.9206743965    0.2205231787
H        1.0705755025   -0.5125947313   -1.3223658849
