3    
Iteration 0 Energy -74.86597294
O       -0.0859698290   -0.0636457750    0.0449685530
H        0.2599527770    1.0420403610    0.3576916220
H        0.7297425410   -0.3801386850   -0.9165123700
3    
Iteration 1 Energy -74.86512352
O       -0.1451559069   -0.1051340760    0.0772807616
H        0.3141647382    0.9898365068    0.2756799328
H        0.7347166784   -0.2864465398   -0.8668129107
3    
Iteration 2 Energy -74.86924537
O       -0.1135559970   -0.0821955916    0.0604869484
H        0.2864010516    1.0175911844    0.3182727293
H        0.7308804319   -0.3371397262   -0.8926118967
3    
Iteration 3 Energy -74.86867872
O       -0.1131985470   -0.0817501581    0.0604049967
H        0.2862166091    1.0191497282    0.3193540627
H        0.7307074117   -0.3391437382   -0.8936112905
3    
Iteration 4 Energy -74.86846346
O       -0.1133458240   -0.0817650483    0.0605367478
H        0.2863957160    1.0194808837    0.3193756830
H        0.7306755678   -0.3394600400   -0.8937646742
3    
Iteration 5 Energy -74.86838798
O       -0.1133908973   -0.0817581440    0.0605837171
H        0.2864526904    1.0196008097    0.3193910218
H        0.7306636490   -0.3395869180   -0.8938270004
3    
Iteration 6 Energy -74.86836144
O       -0.1134085088   -0.0817676872    0.0605949635
H        0.2864563492    1.0196293468    0.3194041019
H        0.7306775841   -0.3396059601   -0.8938513437
3    
Iteration 7 Energy -74.86835222
O       -0.1134131389   -0.0817736152    0.0605959266
H        0.2864505794    1.0196368145    0.3194139381
H        0.7306879667   -0.3396075496   -0.8938621612
3    
Iteration 8 Energy -74.86834901
O       -0.1134146327   -0.0817762127    0.0605958412
H        0.2864475459    1.0196389188    0.3194180486
H        0.7306924740   -0.3396071075   -0.8938662052
3    
Iteration 9 Energy -74.86834789
O       -0.1134152200   -0.0817768927    0.0605960033
H        0.2864469205    1.0196398240    0.3194191694
H        0.7306936677   -0.3396073834   -0.8938675055
3    
Iteration 10 Energy -74.86834750
O       -0.1134154667   -0.0817770298    0.0605961568
H        0.2864469082    1.0196402049    0.3194194011
H        0.7306939118   -0.3396076652   -0.8938679035
