3    
Iteration 0 Energy -74.96498026
O       -0.0859698290   -0.0636457750    0.0449685530
H        0.2022990090    0.8577593390    0.3055711110
H        0.5415012250   -0.3071018590   -0.6946321570
3    
Iteration 1 Energy -74.96521239
O       -0.1092517850   -0.0808833775    0.0571475629
H        0.2224508292    0.8371482899    0.2743830097
H        0.5446318176   -0.2692533366   -0.6756232053
3    
Iteration 2 Energy -74.96565965
O       -0.0987668938   -0.0731217689    0.0516635975
H        0.2132430007    0.8468829680    0.2888156792
H        0.5433548548   -0.2867497520   -0.6845719252
3    
Iteration 3 Energy -74.96566002
O       -0.0990631576   -0.0733423654    0.0518193578
H        0.2134993831    0.8466182756    0.2884154137
H        0.5433950381   -0.2862646549   -0.6843274920
