3    
Iteration 0 Energy -74.73806615
O       -0.0859698290   -0.0636457750    0.0449685530
H        0.3176065450    1.2263213840    0.4098121340
H        0.8552367520   -0.4288299020   -1.0644325120
3    
Iteration 1 Energy -74.73883763
O       -0.1455640986   -0.1058108434    0.0772763048
H        0.3716041230    1.1743799148    0.3281575225
H        0.8608334407   -0.3347233740   -1.0150856692
3    
Iteration 2 Energy -74.74133070
O       -0.1203043047   -0.0883786130    0.0633266192
H        0.3482268154    1.1952951007    0.3625949822
H        0.8589509188   -0.3730708101   -1.0355734427
3    
Iteration 3 Energy -74.74091805
O       -0.1191932051   -0.0878198179    0.0625921459
H        0.3468625184    1.1967818885    0.3647593903
H        0.8592040811   -0.3751164186   -1.0370033846
3    
Iteration 4 Energy -74.74073965
O       -0.1192693186   -0.0879377753    0.0625961520
H        0.3468133104    1.1969513605    0.3649047527
H        0.8593293675   -0.3751679592   -1.0371527595
3    
Iteration 5 Energy -74.74067714
O       -0.1193224401   -0.0879914599    0.0626155853
H        0.3468250023    1.1969901477    0.3649161277
H        0.8593707515   -0.3751530965   -1.0371835775
3    
Iteration 6 Energy -74.74065590
O       -0.1193332717   -0.0880001589    0.0626208453
H        0.3468270336    1.1970125302    0.3649271857
H        0.8593795104   -0.3751668116   -1.0371999032
3    
Iteration 7 Energy -74.74064848
O       -0.1193372557   -0.0880013145    0.0626239596
H        0.3468300718    1.1970214951    0.3649294865
H        0.8593804079   -0.3751746574   -1.0372053277
3    
Iteration 8 Energy -74.74064589
O       -0.1193386639   -0.0880016360    0.0626251068
H        0.3468310111    1.1970245071    0.3649303319
H        0.8593808387   -0.3751773765   -1.0372073283
3    
Iteration 9 Energy -74.74064499
O       -0.1193391665   -0.0880017278    0.0626255238
H        0.3468312928    1.1970255125    0.3649306394
H        0.8593810245   -0.3751783174   -1.0372080602
