3    
Iteration 0 Energy -74.73211864
O       -0.0859698290   -0.0636457750    0.0449685530
H        0.2599527770    1.0420403610    0.3576916220
H        0.9807309630   -0.4775211190   -1.2123526540
3    
Iteration 1 Energy -74.73315061
O       -0.1465104409   -0.0987640447    0.0822733860
H        0.3237298944    0.9943189454    0.2691664131
H        0.9774944474   -0.3946814325   -1.1611322900
3    
Iteration 2 Energy -74.73531028
O       -0.1223540565   -0.0856732147    0.0668529290
H        0.2969813178    1.0116782970    0.3047512515
H        0.9800866025   -0.4251316234   -1.1812966679
3    
Iteration 3 Energy -74.73499082
O       -0.1212987002   -0.0856378786    0.0658674360
H        0.2953115527    1.0129169202    0.3070625380
H        0.9807009700   -0.4264055927   -1.1826224591
3    
Iteration 4 Energy -74.73484742
O       -0.1214136578   -0.0859107628    0.0658184343
H        0.2952336239    1.0130213006    0.3071974064
H        0.9808938167   -0.4262370993   -1.1827083249
3    
Iteration 5 Energy -74.73479715
O       -0.1214201440   -0.0860057121    0.0657694269
H        0.2951409962    1.0130657637    0.3073114752
H        0.9809928757   -0.4261866264   -1.1827733848
3    
Iteration 6 Energy -74.73477884
O       -0.1214290355   -0.0860341285    0.0657613744
H        0.2951270190    1.0130845953    0.3073357045
H        0.9810156874   -0.4261770563   -1.1827895603
3    
Iteration 7 Energy -74.73477230
O       -0.1214321330   -0.0860384959    0.0657617730
H        0.2951291595    1.0130957696    0.3073401340
H        0.9810165870   -0.4261838769   -1.1827943874
3    
Iteration 8 Energy -74.73476995
O       -0.1214332708   -0.0860382152    0.0657630054
H        0.2951320706    1.0131010054    0.3073403835
H        0.9810147535   -0.4261894090   -1.1827958673
3    
Iteration 9 Energy -74.73476911
O       -0.1214337099   -0.0860380069    0.0657635279
H        0.2951331003    1.0131028097    0.3073404355
H        0.9810141033   -0.4261914373   -1.1827964405
