3    
Iteration 0 Energy -74.83055668
O       -0.0859698290   -0.0636457750    0.0449685530
H        0.1446452420    0.6734783160    0.2534505990
H        0.7297425410   -0.3801386850   -0.9165123700
3    
Iteration 1 Energy -74.82490694
O       -0.1406160360   -0.0994310175    0.0751423186
H        0.2241048834    0.6096552566    0.1417447313
H        0.7173358578   -0.3303345164   -0.8757463276
3    
Iteration 2 Energy -74.83134037
O       -0.1141816744   -0.0819973330    0.0600107988
H        0.1884346402    0.6456624880    0.1969213506
H        0.7219537931   -0.3570549696   -0.8957688721
3    
Iteration 3 Energy -74.83187883
O       -0.1002866635   -0.0708778738    0.0562329708
H        0.1746042094    0.6628003876    0.2177869276
H        0.7219215198   -0.3711836277   -0.9043127327
3    
Iteration 4 Energy -74.83179610
O       -0.1010256774   -0.0685838440    0.0564419967
H        0.1777130012    0.6640620336    0.2162355220
H        0.7207366555   -0.3729614405   -0.9036415353
3    
Iteration 5 Energy -74.83176814
O       -0.1009779046   -0.0656989408    0.0569618002
H        0.1814109192    0.6659709374    0.2148071161
H        0.7188638586   -0.3753582931   -0.9031872177
3    
Iteration 6 Energy -74.83176022
O       -0.1007418526   -0.0652742396    0.0572094145
H        0.1820902990    0.6662792510    0.2148026216
H        0.7184061742   -0.3757247676   -0.9033087674
3    
Iteration 7 Energy -74.83175804
O       -0.1006891425   -0.0652177083    0.0572514509
H        0.1823315765    0.6662304635    0.2149945321
H        0.7182592137   -0.3757286023   -0.9034257305
3    
Iteration 8 Energy -74.83175773
O       -0.1007111416   -0.0651568460    0.0572131194
H        0.1827782406    0.6660028710    0.2154526632
H        0.7180469625   -0.3756451477   -0.9036356051
