3    
Iteration 0 Energy -74.77167028
O       -0.0859698290   -0.0636457750    0.0449685530
H        0.3176065450    1.2263213840    0.4098121340
H        0.7924896470   -0.4044842930   -0.9904724410
3    
Iteration 1 Energy -74.77219720
O       -0.1450263724   -0.1073671172    0.0758594385
H        0.3689418971    1.1732938559    0.3300642313
H        0.8002108420   -0.3077354363   -0.9416154427
3    
Iteration 2 Energy -74.77501914
O       -0.1185567709   -0.0877428157    0.0620302372
H        0.3461142492    1.1963866762    0.3652430741
H        0.7965688555   -0.3504525815   -0.9629650862
3    
Iteration 3 Energy -74.77455258
O       -0.1176413762   -0.0870985684    0.0615319738
H        0.3451214570    1.1979104474    0.3670748422
H        0.7966462230   -0.3526206335   -0.9642985995
3    
Iteration 4 Energy -74.77435965
O       -0.1177289944   -0.0871639398    0.0615775059
H        0.3451216919    1.1981176842    0.3671950221
H        0.7967335767   -0.3527625334   -0.9644643210
3    
Iteration 5 Energy -74.77429213
O       -0.1177877926   -0.0872035591    0.0616105254
H        0.3451470085    1.1981647716    0.3671982374
H        0.7967670189   -0.3527700450   -0.9645005673
3    
Iteration 6 Energy -74.77426922
O       -0.1178013807   -0.0872121132    0.0616184999
H        0.3451486060    1.1981854255    0.3672087062
H        0.7967789705   -0.3527821874   -0.9645190226
3    
Iteration 7 Energy -74.77426129
O       -0.1178053803   -0.0872147696    0.0616207609
H        0.3451477431    1.1981926422    0.3672137140
H        0.7967837923   -0.3527867934   -0.9645263029
3    
Iteration 8 Energy -74.77425854
O       -0.1178067904   -0.0872157059    0.0616215543
H        0.3451473112    1.1981950267    0.3672155045
H        0.7967856013   -0.3527882790   -0.9645288963
3    
Iteration 9 Energy -74.77425758
O       -0.1178072805   -0.0872160475    0.0616218167
H        0.3451470877    1.1981958065    0.3672161641
H        0.7967862855   -0.3527887506   -0.9645298287
