3    
Iteration 0 Energy -74.76084482
O       -0.0859698290   -0.0636457750    0.0449685530
H        0.2022990090    0.8577593390    0.3055711110
H        0.9807309630   -0.4775211190   -1.2123526540
3    
Iteration 1 Energy -74.76294286
O       -0.1411103587   -0.1001365087    0.0755936508
H        0.2835472483    0.7975997874    0.1938988029
H        0.9676771039   -0.4291959692   -1.1718290535
3    
Iteration 2 Energy -74.76384944
O       -0.1236150203   -0.0791000358    0.0690601657
H        0.2740791434    0.8255636925    0.2215860981
H        0.9636634407   -0.4536961525   -1.1824059458
3    
Iteration 3 Energy -74.76377558
O       -0.1206028993   -0.0712930576    0.0705472663
H        0.2801221887    0.8323703540    0.2215185370
H        0.9591358032   -0.4610029675   -1.1831156980
3    
Iteration 4 Energy -74.76373741
O       -0.1196443893   -0.0654766218    0.0722504631
H        0.2875882362    0.8359811630    0.2189886461
H        0.9549234447   -0.4657165790   -1.1827023262
3    
Iteration 5 Energy -74.76372365
O       -0.1198624072   -0.0635562329    0.0728290256
H        0.2912547033    0.8363950684    0.2179895170
H        0.9531991430   -0.4668837137   -1.1824920170
3    
Iteration 6 Energy -74.76372127
O       -0.1201348732   -0.0633180290    0.0727518448
H        0.2923467115    0.8359292542    0.2184007990
H        0.9527893056   -0.4667698984   -1.1826590461
3    
Iteration 7 Energy -74.76372116
O       -0.1206787718   -0.0630061968    0.0723661600
H        0.2943768269    0.8347337844    0.2199873876
H        0.9520460201   -0.4663280511   -1.1832594415
