3    
Iteration 0 Energy -74.88834116
O       -0.0859698290   -0.0636457750    0.0449685530
H        0.2311258930    0.9498998500    0.3316313670
H        0.7297425410   -0.3801386850   -0.9165123700
3    
Iteration 1 Energy -74.88798319
O       -0.1441961950   -0.1131909885    0.0711897858
H        0.3011630033    0.8809759417    0.2253134899
H        0.7238371855   -0.3209041264   -0.8764640611
3    
Iteration 2 Energy -74.89097917
O       -0.1147804170   -0.0776042154    0.0625876487
H        0.2849663490    0.9260982795    0.2684835587
H        0.7172276034   -0.3612587022   -0.8937480301
3    
Iteration 3 Energy -74.89071715
O       -0.1129615700   -0.0712285665    0.0650799914
H        0.2916965135    0.9316970580    0.2660143312
H        0.7129530851   -0.3672459409   -0.8937595940
3    
Iteration 4 Energy -74.89064101
O       -0.1127144736   -0.0664214285    0.0669922695
H        0.2988866330    0.9348071025    0.2622437750
H        0.7092344554   -0.3712045709   -0.8928304645
3    
Iteration 5 Energy -74.89061837
O       -0.1129487560   -0.0654993315    0.0674355876
H        0.3010114211    0.9350110525    0.2613858422
H        0.7082891854   -0.3717676252   -0.8926231643
3    
Iteration 6 Energy -74.89061334
O       -0.1131120532   -0.0653882441    0.0673815230
H        0.3015635477    0.9347706832    0.2616163113
H        0.7080947517   -0.3717030127   -0.8927113738
3    
Iteration 7 Energy -74.89061233
O       -0.1134252979   -0.0652060884    0.0671454243
H        0.3026620120    0.9341486410    0.2624953822
H        0.7077020900   -0.3714831503   -0.8930328769
3    
Iteration 8 Energy -74.89061220
O       -0.1137027524   -0.0650503730    0.0668409284
H        0.3036595132    0.9334936958    0.2636109491
H        0.7073420023   -0.3712336342   -0.8934384348
