3    
Iteration 0 Energy -74.51943728
O       -0.0859698290   -0.0636457750    0.0449685530
H        0.3752603130    1.4106024070    0.4619326450
H        1.1689722790   -0.5505579440   -1.4342328680
3    
Iteration 1 Energy -74.52066508
O       -0.1292150852   -0.0915796847    0.0699606955
H        0.4175808213    1.3767296388    0.4019083472
H        1.1698970063   -0.4887512679   -1.3992007186
3    
Iteration 2 Energy -74.52118768
O       -0.1273136838   -0.0939585708    0.0667658790
H        0.4107836348    1.3742260925    0.4069330325
H        1.1747927386   -0.4838688612   -1.4010305885
3    
Iteration 3 Energy -74.52133303
O       -0.1266848930   -0.0980065861    0.0638143039
H        0.4042747664    1.3707063627    0.4110923894
H        1.1806727081   -0.4763011677   -1.4022383705
3    
Iteration 4 Energy -74.52137642
O       -0.1268562110   -0.0986528142    0.0636020984
H        0.4039454727    1.3701489886    0.4110824029
H        1.1811732575   -0.4750975969   -1.4020161795
3    
Iteration 5 Energy -74.52139685
O       -0.1269001810   -0.0987397588    0.0635934786
H        0.4040037145    1.3700783658    0.4109858325
H        1.1811589232   -0.4749400600   -1.4019109893
3    
Iteration 6 Energy -74.52140512
O       -0.1269065647   -0.0987390326    0.0635999705
H        0.4040490383    1.3700808313    0.4109440447
H        1.1811199154   -0.4749432865   -1.4018756941
3    
Iteration 7 Energy -74.52140813
O       -0.1268790876   -0.0987204225    0.0635845800
H        0.4040329611    1.3701045857    0.4109731613
H        1.1811084625   -0.4749856782   -1.4018894201
3    
Iteration 8 Energy -74.52140857
O       -0.1268761123   -0.0987129361    0.0635860798
H        0.4040405643    1.3701129212    0.4109707426
H        1.1810978216   -0.4750015322   -1.4018885020
