3    
Iteration 0 Energy -74.91865342
O       -0.0859698290   -0.0636457750    0.0449685530
H        0.2311258930    0.9498998500    0.3316313670
H        0.6669954360   -0.3557930760   -0.8425522990
3    
Iteration 1 Energy -74.91695099
O       -0.1446013795   -0.1160856698    0.0699247427
H        0.2981720733    0.8788263410    0.2268849363
H        0.6627881479   -0.2940363802   -0.8026571945
3    
Iteration 2 Energy -74.92092194
O       -0.1150863876   -0.0842032830    0.0598056060
H        0.2752316405    0.9214152910    0.2741695314
H        0.6595008622   -0.3312720660   -0.8212399269
3    
Iteration 3 Energy -74.92073631
O       -0.1100411105   -0.0737744826    0.0614880176
H        0.2800504669    0.9320774229    0.2760566554
H        0.6545688209   -0.3418175731   -0.8230247082
3    
Iteration 4 Energy -74.92064028
O       -0.1099695063   -0.0697898330    0.0632268163
H        0.2860319294    0.9348742823    0.2725768661
H        0.6515422999   -0.3452083683   -0.8221542293
3    
Iteration 5 Energy -74.92061333
O       -0.1100564311   -0.0658004268    0.0651642675
H        0.2931506635    0.9372515527    0.2684134900
H        0.6480264171   -0.3483917845   -0.8210412961
3    
Iteration 6 Energy -74.92060543
O       -0.1101730984   -0.0657430646    0.0651497104
H        0.2935188238    0.9370836540    0.2685504323
H        0.6479006797   -0.3483365538   -0.8211025025
3    
Iteration 7 Energy -74.92060362
O       -0.1103908395   -0.0656186510    0.0650047699
H        0.2942945025    0.9366611058    0.2691252556
H        0.6476217385   -0.3481875929   -0.8213174852
3    
Iteration 8 Energy -74.92060326
O       -0.1106596095   -0.0654552253    0.0647388168
H        0.2952709612    0.9360660502    0.2701055829
H        0.6472679370   -0.3479719503   -0.8216747390
