3    
Iteration 0 Energy -74.79889396
O       -0.0859698290   -0.0636457750    0.0449685530
H        0.2599527770    1.0420403610    0.3576916220
H        0.8552367520   -0.4288299020   -1.0644325120
3    
Iteration 1 Energy -74.79930586
O       -0.1460267198   -0.1017485897    0.0800780239
H        0.3194260290    0.9921763993    0.2720241870
H        0.8558203927   -0.3408631283   -1.0138745635
3    
Iteration 2 Energy -74.80223077
O       -0.1184276435   -0.0837767584    0.0642120339
H        0.2927460712    1.0146640695    0.3105234560
H        0.8549012397   -0.3813226445   -1.0365078410
3    
Iteration 3 Energy -74.80179242
O       -0.1176536876   -0.0832301775    0.0637918325
H        0.2921358454    1.0163287190    0.3120722938
H        0.8547374759   -0.3835338935   -1.0376364812
3    
Iteration 4 Energy -74.80161206
O       -0.1177835561   -0.0832737384    0.0638903130
H        0.2923192403    1.0166218636    0.3120677337
H        0.8546839155   -0.3837834963   -1.0377304048
3    
Iteration 5 Energy -74.80154855
O       -0.1178185896   -0.0832578495    0.0639329266
H        0.2923959496    1.0167455968    0.3120664534
H        0.8546421940   -0.3839231429   -1.0377717426
3    
Iteration 6 Energy -74.80152597
O       -0.1178330457   -0.0832623351    0.0639440907
H        0.2924090894    1.0167768109    0.3120720370
H        0.8546434631   -0.3839498957   -1.0377884948
3    
Iteration 7 Energy -74.80151806
O       -0.1178371394   -0.0832679132    0.0639447385
H        0.2924054811    1.0167838082    0.3120795285
H        0.8546511187   -0.3839513394   -1.0377966389
3    
Iteration 8 Energy -74.80151529
O       -0.1178383102   -0.0832710439    0.0639440239
H        0.2924019925    1.0167852388    0.3120836707
H        0.8546557274   -0.3839496665   -1.0378000725
3    
Iteration 9 Energy -74.80151432
O       -0.1178387520   -0.0832719417    0.0639439105
H        0.2924010927    1.0167859179    0.3120849103
H        0.8546570186   -0.3839494745   -1.0378012050
