3    
Iteration 0 Energy -74.62708481
O       -0.0859698290   -0.0636457750    0.0449685530
H        0.1446452420    0.6734783160    0.2534505990
H        1.1062251740   -0.5262123350   -1.3602727970
3    
Iteration 1 Energy -74.62904261
O       -0.1374049454   -0.0882981548    0.0783865217
H        0.2330820840    0.6183159298    0.1383831904
H        1.0877243012   -0.4863049372   -1.3194480738
3    
Iteration 2 Energy -74.62980276
O       -0.1216370256   -0.0775079737    0.0676133210
H        0.2121211190    0.6416191730    0.1742736554
H        1.0903207782   -0.5033516146   -1.3320066840
3    
Iteration 3 Energy -74.62980801
O       -0.1193225271   -0.0731646586    0.0675927903
H        0.2136629622    0.6460163477    0.1766278251
H        1.0883925507   -0.5077218188   -1.3331734724
3    
Iteration 4 Energy -74.62979281
O       -0.1180179036   -0.0687515757    0.0683722598
H        0.2178790841    0.6492464454    0.1762952093
H        1.0856320941   -0.5115433505   -1.3333968522
3    
Iteration 5 Energy -74.62978630
O       -0.1168320512   -0.0629438094    0.0696333489
H        0.2248370379    0.6527187993    0.1749324490
H        1.0815600338   -0.5161832997   -1.3333459263
3    
Iteration 6 Energy -74.62978277
O       -0.1169440647   -0.0621953537    0.0698081115
H        0.2264107563    0.6527076240    0.1747925232
H        1.0808291053   -0.5165518865   -1.3333633018
3    
Iteration 7 Energy -74.62978202
O       -0.1171394946   -0.0620755163    0.0697405076
H        0.2271915312    0.6522892845    0.1751884215
H        1.0805363495   -0.5164025762   -1.3335274007
