3    
Iteration 0 Energy -74.88999164
O       -0.0859698290   -0.0636457750    0.0449685530
H        0.1446452420    0.6734783160    0.2534505990
H        0.6042483300   -0.3314474680   -0.7685922280
3    
Iteration 1 Energy -74.89013401
O       -0.1001693007   -0.0722918540    0.0534832047
H        0.1592478310    0.6628011974    0.2333192196
H        0.6038456459   -0.3121242746   -0.7569755574
3    
Iteration 2 Energy -74.89028805
O       -0.0941764601   -0.0687011988    0.0498585930
H        0.1530366489    0.6674930064    0.2419621374
H        0.6040641266   -0.3204067833   -0.7619938465
3    
Iteration 3 Energy -74.89028819
O       -0.0943078694   -0.0687828629    0.0499393216
H        0.1531697943    0.6673936268    0.2417703057
H        0.6040627072   -0.3202257868   -0.7618827528
