35
Scan Cycle 1/19 ; Dihedral 1-14-15-16 = 0.00 ; Iteration 20 Energy -1711.49967
C  28.450  22.882  24.823
C  27.597  21.790  24.601
H  26.514  21.886  24.560
N  28.080  20.558  24.427
C  29.415  20.364  24.464
H  29.746  19.334  24.315
C  30.345  21.376  24.676
H  31.413  21.160  24.696
C  29.856  22.677  24.861
C  30.469  23.954  25.099
H  31.528  24.169  25.188
C  29.458  24.868  25.195
H  29.519  25.934  25.369
N  28.216  24.250  25.030
C  27.008  24.955  25.086
S  25.450  24.171  24.887
C  26.853  26.311  25.294
H  27.676  27.002  25.442
C  25.494  26.721  25.295
H  25.190  27.756  25.444
C  24.592  25.699  25.089
C  23.148  25.739  25.025
C  22.260  24.694  24.806
H  22.579  23.666  24.647
C  20.904  25.098  24.808
H  20.058  24.432  24.655
S  22.283  27.250  25.239
C  20.738  26.449  25.028
C  19.454  27.157  25.086
O  18.369  26.625  24.943
O  19.616  28.484  25.318
C  18.400  29.253  25.389
H  17.764  28.886  26.204
H  18.719  30.281  25.578
H  17.850  29.184  24.443
35
Scan Cycle 2/19 ; Dihedral 1-14-15-16 = 10.00 ; Iteration 20 Energy -1711.499915
C  28.455  22.895  24.764
C  27.617  21.840  24.371
H  26.547  21.965  24.217
N  28.101  20.616  24.155
C  29.423  20.394  24.315
H  29.756  19.372  24.125
C  30.339  21.371  24.688
H  31.398  21.135  24.793
C  29.849  22.665  24.919
C  30.450  23.914  25.298
H  31.497  24.104  25.506
C  29.443  24.835  25.362
H  29.491  25.882  25.634
N  28.217  24.250  25.036
C  27.009  24.956  25.068
S  25.448  24.155  24.999
C  26.857  26.324  25.164
H  27.686  27.025  25.202
C  25.498  26.732  25.189
H  25.195  27.775  25.258
C  24.594  25.695  25.104
C  23.147  25.729  25.085
C  22.256  24.669  24.993
H  22.572  23.630  24.921
C  20.900  25.072  25.002
H  20.050  24.395  24.939
S  22.286  27.254  25.187
C  20.738  26.437  25.102
C  19.454  27.148  25.137
O  18.366  26.606  25.080
O  19.620  28.491  25.240
C  18.405  29.264  25.281
H  17.797  28.973  26.146
H  18.727  30.305  25.366
H  17.825  29.110  24.363
35
Scan Cycle 3/19 ; Dihedral 1-14-15-16 = 20.00 ; Iteration 20 Energy -1711.500603
C  28.464  22.912  24.721
C  27.649  21.905  24.183
H  26.600  22.070  23.938
N  28.131  20.687  23.934
C  29.431  20.430  24.199
H  29.765  19.414  23.976
C  30.326  21.364  24.711
H  31.368  21.100  24.889
C  29.836  22.651  24.979
C  30.417  23.867  25.479
H  31.444  24.027  25.789
C  29.417  24.800  25.513
H  29.443  25.825  25.861
N  28.219  24.254  25.047
C  27.011  24.958  25.047
S  25.454  24.150  25.114
C  26.859  26.328  25.023
H  27.691  27.024  24.953
C  25.500  26.735  25.065
H  25.194  27.779  25.046
C  24.598  25.692  25.106
C  23.151  25.725  25.126
C  22.260  24.661  25.132
H  22.577  23.619  25.120
C  20.904  25.062  25.151
H  20.055  24.383  25.157
S  22.290  27.253  25.149
C  20.742  26.432  25.163
C  19.458  27.143  25.185
O  18.370  26.597  25.196
O  19.623  28.490  25.191
C  18.408  29.262  25.213
H  17.826  29.033  26.113
H  18.730  30.307  25.215
H  17.802  29.045  24.325
35
Scan Cycle 4/19 ; Dihedral 1-14-15-16 = 30.00 ; Iteration 20 Energy -1711.501358
C  28.473  22.922  24.706
C  27.680  21.951  24.078
H  26.644  22.139  23.796
N  28.169  20.745  23.790
C  29.454  20.467  24.104
H  29.796  19.463  23.846
C  30.327  21.368  24.706
H  31.358  21.087  24.920
C  29.830  22.644  25.017
C  30.387  23.832  25.604
H  31.397  23.973  25.973
C  29.386  24.766  25.636
H  29.390  25.774  26.035
N  28.214  24.245  25.086
C  27.007  24.949  25.044
S  25.454  24.148  25.225
C  26.855  26.311  24.915
H  27.688  26.993  24.766
C  25.495  26.722  24.962
H  25.186  27.760  24.861
C  24.597  25.685  25.109
C  23.151  25.721  25.155
C  22.259  24.660  25.225
H  22.575  23.619  25.253
C  20.904  25.064  25.252
H  20.054  24.387  25.303
S  22.291  27.250  25.126
C  20.743  26.433  25.204
C  19.460  27.146  25.216
O  18.373  26.603  25.273
O  19.626  28.491  25.157
C  18.413  29.267  25.165
H  17.847  29.080  26.086
H  18.735  30.310  25.113
H  17.790  29.009  24.300
35
Scan Cycle 5/19 ; Dihedral 1-14-15-16 = 40.00 ; Iteration 20 Energy -1711.501909
C  28.483  22.929  24.700
C  27.714  21.990  24.000
H  26.686  22.193  23.696
N  28.216  20.800  23.668
C  29.491  20.511  24.013
H  29.844  19.521  23.717
C  30.340  21.381  24.689
H  31.363  21.090  24.925
C  29.830  22.640  25.046
C  30.358  23.800  25.710
H  31.354  23.927  26.121
C  29.351  24.729  25.750
H  29.332  25.718  26.193
N  28.203  24.228  25.137
C  26.998  24.931  25.051
S  25.450  24.150  25.339
C  26.844  26.279  24.822
H  27.678  26.942  24.604
C  25.486  26.695  24.866
H  25.173  27.722  24.686
C  24.592  25.673  25.114
C  23.146  25.716  25.182
C  22.253  24.662  25.310
H  22.567  23.622  25.373
C  20.899  25.072  25.341
H  20.048  24.400  25.433
S  22.291  27.246  25.105
C  20.742  26.438  25.240
C  19.461  27.156  25.243
O  18.374  26.620  25.338
O  19.631  28.497  25.125
C  18.419  29.276  25.120
H  17.868  29.130  26.057
H  18.745  30.315  25.020
H  17.782  28.985  24.276
35
Scan Cycle 6/19 ; Dihedral 1-14-15-16 = 50.00 ; Iteration 20 Energy -1711.502162
C  28.495  22.935  24.689
C  27.753  22.036  23.913
H  26.732  22.252  23.595
N  28.274  20.871  23.527
C  29.541  20.569  23.895
H  29.911  19.601  23.552
C  30.361  21.402  24.649
H  31.378  21.101  24.900
C  29.831  22.635  25.063
C  30.326  23.759  25.812
H  31.307  23.869  26.262
C  29.309  24.677  25.871
H  29.265  25.642  26.364
N  28.187  24.201  25.195
C  26.985  24.905  25.072
S  25.442  24.153  25.456
C  26.829  26.232  24.750
H  27.662  26.873  24.471
C  25.473  26.655  24.790
H  25.158  27.666  24.539
C  24.583  25.657  25.132
C  23.138  25.711  25.225
C  22.243  24.671  25.433
H  22.554  23.635  25.550
C  20.892  25.089  25.464
H  20.040  24.429  25.611
S  22.288  27.238  25.073
C  20.739  26.448  25.284
C  19.461  27.172  25.267
O  18.374  26.648  25.416
O  19.634  28.502  25.066
C  18.426  29.286  25.037
H  17.892  29.200  25.991
H  18.754  30.316  24.868
H  17.772  28.948  24.225
35
Scan Cycle 7/19 ; Dihedral 1-14-15-16 = 60.00 ; Iteration 20 Energy -1711.502123
C  28.510  22.943  24.671
C  27.803  22.093  23.812
H  26.790  22.325  23.477
N  28.347  20.961  23.368
C  29.603  20.645  23.760
H  29.996  19.705  23.366
C  30.389  21.429  24.599
H  31.398  21.117  24.867
C  29.833  22.628  25.077
C  30.286  23.703  25.919
H  31.248  23.791  26.413
C  29.257  24.606  26.000
H  29.185  25.540  26.548
N  28.168  24.166  25.252
C  26.967  24.871  25.100
S  25.431  24.158  25.576
C  26.810  26.171  24.684
H  27.641  26.785  24.345
C  25.456  26.603  24.720
H  25.138  27.593  24.400
C  24.571  25.636  25.156
C  23.128  25.708  25.277
C  22.233  24.693  25.583
H  22.542  23.666  25.771
C  20.885  25.121  25.614
H  20.034  24.480  25.830
S  22.283  27.225  25.031
C  20.736  26.464  25.336
C  19.461  27.193  25.295
O  18.375  26.689  25.507
O  19.636  28.503  24.991
C  18.432  29.292  24.930
H  17.920  29.280  25.900
H  18.761  30.303  24.677
H  17.757  28.898  24.160
35
Scan Cycle 8/19 ; Dihedral 1-14-15-16 = 70.00 ; Iteration 20 Energy -1711.50188
C  28.531  22.954  24.653
C  27.872  22.157  23.711
H  26.873  22.405  23.346
N  28.447  21.059  23.221
C  29.686  20.727  23.651
H  30.106  19.818  23.217
C  30.423  21.459  24.578
H  31.421  21.135  24.874
C  29.835  22.622  25.105
C  30.232  23.641  26.039
H  31.168  23.706  26.584
C  29.192  24.531  26.124
H  29.084  25.430  26.722
N  28.147  24.133  25.294
C  26.947  24.836  25.115
S  25.420  24.176  25.691
C  26.780  26.090  24.582
H  27.606  26.666  24.171
C  25.428  26.528  24.608
H  25.103  27.485  24.205
C  24.554  25.611  25.158
C  23.114  25.704  25.312
C  22.221  24.718  25.704
H  22.527  23.702  25.944
C  20.877  25.161  25.744
H  20.027  24.542  26.020
S  22.276  27.210  24.995
C  20.731  26.484  25.387
C  19.462  27.222  25.332
O  18.378  26.742  25.604
O  19.639  28.508  24.941
C  18.440  29.303  24.862
H  17.954  29.358  25.843
H  18.770  30.293  24.536
H  17.742  28.868  24.137
35
Scan Cycle 9/19 ; Dihedral 1-14-15-16 = 80.00 ; Iteration 20 Energy -1711.501617
C  28.560  22.980  24.621
C  27.964  22.263  23.577
H  26.991  22.544  23.169
N  28.572  21.205  23.041
C  29.780  20.835  23.526
H  30.230  19.962  23.050
C  30.452  21.486  24.557
H  31.426  21.134  24.894
C  29.827  22.606  25.135
C  30.154  23.542  26.177
H  31.050  23.559  26.789
C  29.109  24.427  26.261
H  28.960  25.278  26.918
N  28.130  24.106  25.324
C  26.928  24.806  25.129
S  25.417  24.209  25.807
C  26.744  25.995  24.470
H  27.559  26.525  23.980
C  25.393  26.437  24.489
H  25.056  27.350  24.001
C  24.537  25.585  25.160
C  23.104  25.706  25.359
C  22.220  24.766  25.865
H  22.527  23.771  26.180
C  20.881  25.224  25.915
H  20.037  24.639  26.274
S  22.265  27.188  24.944
C  20.732  26.514  25.451
C  19.466  27.256  25.377
O  18.390  26.812  25.729
O  19.637  28.502  24.870
C  18.441  29.298  24.765
H  17.992  29.443  25.755
H  18.766  30.253  24.343
H  17.714  28.809  24.106
35
Scan Cycle 10/19 ; Dihedral 1-14-15-16 = 90.00 ; Iteration 20 Energy -1711.501565
C  28.592  23.021  24.575
C  28.076  22.420  23.422
H  27.142  22.757  22.969
N  28.714  21.408  22.835
C  29.876  20.972  23.376
H  30.355  20.142  22.851
C  30.466  21.504  24.518
H  31.404  21.100  24.898
C  29.806  22.571  25.154
C  30.049  23.385  26.315
H  30.889  23.324  26.998
C  29.009  24.276  26.402
H  28.814  25.058  27.128
N  28.118  24.080  25.350
C  26.917  24.782  25.153
S  25.426  24.251  25.924
C  26.709  25.894  24.377
H  27.507  26.371  23.812
C  25.358  26.338  24.393
H  25.005  27.201  23.831
C  24.526  25.563  25.179
C  23.104  25.720  25.427
C  22.241  24.855  26.083
H  22.560  23.903  26.501
C  20.908  25.327  26.138
H  20.080  24.797  26.603
S  22.251  27.148  24.874
C  20.741  26.552  25.528
C  19.474  27.291  25.423
O  18.415  26.900  25.874
O  19.625  28.464  24.762
C  18.427  29.252  24.615
H  18.024  29.519  25.599
H  18.735  30.146  24.066
H  17.670  28.692  24.053
35
Scan Cycle 11/19 ; Dihedral 1-14-15-16 = 100.00 ; Iteration 20 Energy -1711.501752
C  28.624  23.053  24.545
C  28.191  22.552  23.313
H  27.288  22.928  22.826
N  28.870  21.590  22.689
C  29.992  21.105  23.271
H  30.508  20.321  22.713
C  30.497  21.535  24.493
H  31.406  21.096  24.904
C  29.793  22.547  25.169
C  29.947  23.253  26.413
H  30.736  23.128  27.148
C  28.903  24.138  26.502
H  28.655  24.856  27.278
N  28.095  24.045  25.372
C  26.895  24.745  25.163
S  25.427  24.291  26.022
C  26.662  25.773  24.285
H  27.442  26.192  23.653
C  25.312  26.219  24.298
H  24.944  27.027  23.669
C  24.506  25.532  25.186
C  23.097  25.730  25.475
C  22.255  24.941  26.244
H  22.583  24.029  26.738
C  20.929  25.432  26.309
H  20.116  24.959  26.854
S  22.233  27.109  24.824
C  20.746  26.596  25.591
C  19.482  27.335  25.466
O  18.439  27.003  25.995
O  19.615  28.438  24.689
C  18.419  29.222  24.515
H  18.058  29.587  25.485
H  18.710  30.056  23.871
H  17.634  28.620  24.041
35
Scan Cycle 12/19 ; Dihedral 1-14-15-16 = 110.00 ; Iteration 20 Energy -1711.502083
C  28.648  23.070  24.512
C  28.299  22.685  23.213
H  27.425  23.099  22.706
N  29.027  21.789  22.546
C  30.115  21.257  23.151
H  30.674  20.532  22.556
C  30.536  21.571  24.439
H  31.420  21.097  24.866
C  29.778  22.510  25.160
C  29.842  23.091  26.475
H  30.583  22.897  27.244
C  28.785  23.958  26.581
H  28.483  24.598  27.403
N  28.054  23.975  25.396
C  26.864  24.684  25.181
S  25.412  24.299  26.098
C  26.622  25.661  24.247
H  27.391  26.035  23.575
C  25.279  26.127  24.269
H  24.908  26.907  23.608
C  24.487  25.510  25.219
C  23.094  25.755  25.542
C  22.283  25.075  26.439
H  22.629  24.229  27.029
C  20.964  25.584  26.502
H  20.175  25.191  27.138
S  22.207  27.051  24.764
C  20.754  26.653  25.656
C  19.490  27.385  25.497
O  18.470  27.130  26.109
O  19.593  28.384  24.587
C  18.394  29.153  24.372
H  18.080  29.637  25.304
H  18.660  29.899  23.618
H  17.586  28.506  24.009
35
Scan Cycle 13/19 ; Dihedral 1-14-15-16 = 120.00 ; Iteration 20 Energy -1711.502404
C  28.662  23.072  24.481
C  28.399  22.805  23.134
H  27.548  23.250  22.615
N  29.183  21.987  22.431
C  30.244  21.417  23.047
H  30.853  20.760  22.422
C  30.582  21.613  24.383
H  31.448  21.113  24.817
C  29.763  22.468  25.141
C  29.738  22.917  26.508
H  30.436  22.661  27.297
C  28.659  23.755  26.632
H  28.300  24.311  27.492
N  27.997  23.875  25.413
C  26.822  24.602  25.192
S  25.381  24.282  26.150
C  26.584  25.555  24.232
H  27.347  25.894  23.536
C  25.253  26.054  24.268
H  24.890  26.828  23.594
C  24.468  25.493  25.257
C  23.093  25.789  25.608
C  22.322  25.238  26.621
H  22.693  24.475  27.303
C  21.010  25.765  26.679
H  20.251  25.466  27.399
S  22.174  26.981  24.709
C  20.765  26.718  25.714
C  19.499  27.439  25.523
O  18.507  27.276  26.208
O  19.563  28.313  24.488
C  18.359  29.062  24.233
H  18.092  29.664  25.109
H  18.594  29.703  23.379
H  17.532  28.383  23.994
35
Scan Cycle 14/19 ; Dihedral 1-14-15-16 = 130.00 ; Iteration 20 Energy -1711.502597
C  28.677  23.064  24.462
C  28.490  22.870  23.088
H  27.649  23.313  22.553
N  29.337  22.123  22.380
C  30.387  21.552  23.013
H  31.049  20.957  22.381
C  30.650  21.676  24.374
H  31.510  21.178  24.821
C  29.765  22.455  25.139
C  29.657  22.813  26.527
H  30.324  22.529  27.334
C  28.545  23.606  26.649
H  28.128  24.096  27.523
N  27.936  23.779  25.408
C  26.768  24.512  25.172
S  25.350  24.269  26.183
C  26.525  25.425  24.175
H  27.277  25.723  23.448
C  25.207  25.955  24.225
H  24.843  26.706  23.527
C  24.438  25.461  25.260
C  23.081  25.803  25.636
C  22.341  25.344  26.717
H  22.730  24.633  27.444
C  21.039  25.894  26.782
H  20.305  25.665  27.551
S  22.143  26.933  24.679
C  20.769  26.773  25.754
C  19.507  27.497  25.555
O  18.540  27.403  26.286
O  19.543  28.287  24.453
C  18.340  29.033  24.185
H  18.114  29.704  25.022
H  18.550  29.603  23.276
H  17.496  28.350  24.030
35
Scan Cycle 15/19 ; Dihedral 1-14-15-16 = 140.00 ; Iteration 20 Energy -1711.502545
C  28.689  23.053  24.444
C  28.572  22.916  23.056
H  27.736  23.344  22.501
N  29.483  22.242  22.353
C  30.528  21.685  23.006
H  31.244  21.150  22.378
C  30.723  21.751  24.382
H  31.581  21.266  24.847
C  29.771  22.453  25.140
C  29.584  22.731  26.539
H  30.226  22.431  27.360
C  28.435  23.469  26.648
H  27.964  23.898  27.526
N  27.872  23.680  25.391
C  26.711  24.416  25.140
S  25.321  24.257  26.205
C  26.459  25.291  24.111
H  27.194  25.547  23.352
C  25.154  25.853  24.175
H  24.786  26.579  23.453
C  24.406  25.425  25.253
C  23.068  25.811  25.653
C  22.361  25.435  26.785
H  22.765  24.766  27.543
C  21.070  26.009  26.859
H  20.360  25.841  27.666
S  22.112  26.893  24.657
C  20.776  26.825  25.788
C  19.518  27.555  25.586
O  18.575  27.523  26.355
O  19.527  28.275  24.437
C  18.326  29.022  24.164
H  18.138  29.748  24.964
H  18.512  29.532  23.214
H  17.467  28.345  24.080
35
Scan Cycle 16/19 ; Dihedral 1-14-15-16 = 150.00 ; Iteration 20 Energy -1711.502171
C  28.698  23.040  24.426
C  28.652  22.962  23.029
H  27.822  23.372  22.452
N  29.624  22.363  22.340
C  30.662  21.821  23.015
H  31.429  21.349  22.397
C  30.788  21.825  24.400
H  31.643  21.354  24.884
C  29.772  22.449  25.143
C  29.510  22.644  26.543
H  30.126  22.326  27.377
C  28.326  23.326  26.635
H  27.801  23.689  27.512
N  27.809  23.578  25.365
C  26.653  24.318  25.103
S  25.297  24.243  26.218
C  26.389  25.157  24.046
H  27.106  25.372  23.258
C  25.100  25.752  24.126
H  24.727  26.456  23.385
C  24.376  25.390  25.243
C  23.059  25.819  25.665
C  22.389  25.525  26.844
H  22.813  24.901  27.628
C  21.109  26.123  26.928
H  20.429  26.018  27.769
S  22.081  26.850  24.637
C  20.787  26.875  25.818
C  19.532  27.611  25.617
O  18.618  27.642  26.420
O  19.508  28.258  24.425
C  18.308  29.005  24.149
H  18.160  29.782  24.909
H  18.466  29.451  23.164
H  17.438  28.338  24.139
35
Scan Cycle 17/19 ; Dihedral 1-14-15-16 = 160.00 ; Iteration 20 Energy -1711.501458
C  28.710  23.035  24.413
C  28.727  22.996  23.013
H  27.904  23.377  22.409
N  29.754  22.463  22.350
C  30.788  21.948  23.050
H  31.601  21.532  22.453
C  30.854  21.912  24.440
H  31.707  21.461  24.947
C  29.779  22.465  25.154
C  29.452  22.596  26.548
H  30.046  22.272  27.396
C  28.237  23.222  26.613
H  27.664  23.528  27.482
N  27.758  23.496  25.332
C  26.599  24.228  25.058
S  25.292  24.257  26.234
C  26.302  25.003  23.960
H  26.984  25.163  23.132
C  25.025  25.622  24.054
H  24.630  26.279  23.282
C  24.342  25.345  25.219
C  23.047  25.814  25.663
C  22.406  25.576  26.871
H  22.841  24.971  27.665
C  21.140  26.199  26.969
H  20.482  26.136  27.833
S  22.056  26.826  24.627
C  20.797  26.916  25.842
C  19.550  27.666  25.650
O  18.661  27.742  26.477
O  19.502  28.269  24.436
C  18.308  29.027  24.167
H  18.195  29.834  24.901
H  18.443  29.433  23.161
H  17.426  28.376  24.207
35
Scan Cycle 18/19 ; Dihedral 1-14-15-16 = 170.00 ; Iteration 20 Energy -1711.500542
C  28.730  23.046  24.401
C  28.822  23.068  23.002
H  28.025  23.451  22.367
N  29.896  22.592  22.371
C  30.907  22.071  23.100
H  31.761  21.703  22.527
C  30.902  21.975  24.488
H  31.739  21.525  25.020
C  29.778  22.469  25.167
C  29.384  22.528  26.548
H  29.945  22.179  27.408
C  28.152  23.119  26.583
H  27.533  23.363  27.439
N  27.723  23.443  25.294
C  26.557  24.161  25.012
S  25.316  24.312  26.251
C  26.204  24.843  23.870
H  26.832  24.926  22.991
C  24.937  25.481  23.978
H  24.502  26.066  23.170
C  24.313  25.309  25.194
C  23.040  25.816  25.659
C  22.436  25.636  26.896
H  22.886  25.053  27.698
C  21.182  26.281  27.010
H  20.551  26.261  27.895
S  22.033  26.803  24.617
C  20.814  26.958  25.867
C  19.571  27.718  25.684
O  18.710  27.841  26.534
O  19.492  28.273  24.448
C  18.299  29.037  24.187
H  18.222  29.875  24.890
H  18.408  29.401  23.162
H  17.411  28.401  24.282
35
Scan Cycle 19/19 ; Dihedral 1-14-15-16 = 180.00 ; Iteration 20 Energy -1711.50001
C  28.769  23.100  24.398
C  29.001  23.328  23.034
H  28.307  23.873  22.398
N  30.105  22.881  22.433
C  31.015  22.196  23.155
H  31.896  21.857  22.606
C  30.884  21.915  24.511
H  31.652  21.357  25.045
C  29.729  22.378  25.159
C  29.238  22.296  26.507
H  29.716  21.815  27.353
C  28.037  22.946  26.529
H  27.361  23.100  27.362
N  27.720  23.448  25.266
C  26.551  24.160  24.982
S  25.393  24.457  26.275
C  26.114  24.707  23.796
H  26.654  24.655  22.859
C  24.857  25.362  23.917
H  24.365  25.849  23.077
C  24.315  25.329  25.182
C  23.071  25.882  25.671
C  22.549  25.836  26.957
H  23.055  25.348  27.787
C  21.298  26.486  27.080
H  20.725  26.561  28.001
S  21.989  26.747  24.595
C  20.851  27.033  25.896
C  19.592  27.766  25.712
O  18.785  27.978  26.598
O  19.429  28.184  24.432
C  18.216  28.912  24.167
H  18.175  29.821  24.780
H  18.256  29.164  23.104
H  17.341  28.289  24.386
