35
Scan Cycle 1/19 ; Dihedral 1-14-15-16 = 0.00 ; Iteration 20 Energy -1711.49967
C  28.450  22.882  24.823
C  27.597  21.790  24.601
H  26.514  21.886  24.560
N  28.080  20.558  24.427
C  29.415  20.364  24.464
H  29.746  19.334  24.315
C  30.345  21.376  24.676
H  31.413  21.160  24.696
C  29.856  22.677  24.861
C  30.469  23.954  25.099
H  31.528  24.169  25.188
C  29.458  24.868  25.195
H  29.519  25.934  25.369
N  28.216  24.250  25.030
C  27.008  24.955  25.086
S  25.450  24.171  24.887
C  26.853  26.311  25.294
H  27.676  27.002  25.442
C  25.494  26.721  25.295
H  25.190  27.756  25.444
C  24.592  25.699  25.089
C  23.148  25.739  25.025
C  22.260  24.694  24.806
H  22.579  23.666  24.647
C  20.904  25.098  24.808
H  20.058  24.432  24.655
S  22.283  27.250  25.239
C  20.738  26.449  25.028
C  19.454  27.157  25.086
O  18.369  26.625  24.943
O  19.616  28.484  25.318
C  18.400  29.253  25.389
H  17.764  28.886  26.204
H  18.719  30.281  25.578
H  17.850  29.184  24.443
35
Scan Cycle 4/19 ; Dihedral 1-14-15-16 = 30.00 ; Iteration 20 Energy -1711.501358
C  28.473  22.922  24.706
C  27.680  21.951  24.078
H  26.644  22.139  23.796
N  28.169  20.745  23.790
C  29.454  20.467  24.104
H  29.796  19.463  23.846
C  30.327  21.368  24.706
H  31.358  21.087  24.920
C  29.830  22.644  25.017
C  30.387  23.832  25.604
H  31.397  23.973  25.973
C  29.386  24.766  25.636
H  29.390  25.774  26.035
N  28.214  24.245  25.086
C  27.007  24.949  25.044
S  25.454  24.148  25.225
C  26.855  26.311  24.915
H  27.688  26.993  24.766
C  25.495  26.722  24.962
H  25.186  27.760  24.861
C  24.597  25.685  25.109
C  23.151  25.721  25.155
C  22.259  24.660  25.225
H  22.575  23.619  25.253
C  20.904  25.064  25.252
H  20.054  24.387  25.303
S  22.291  27.250  25.126
C  20.743  26.433  25.204
C  19.460  27.146  25.216
O  18.373  26.603  25.273
O  19.626  28.491  25.157
C  18.413  29.267  25.165
H  17.847  29.080  26.086
H  18.735  30.310  25.113
H  17.790  29.009  24.300
35
Scan Cycle 7/19 ; Dihedral 1-14-15-16 = 60.00 ; Iteration 20 Energy -1711.502123
C  28.510  22.943  24.671
C  27.803  22.093  23.812
H  26.790  22.325  23.477
N  28.347  20.961  23.368
C  29.603  20.645  23.760
H  29.996  19.705  23.366
C  30.389  21.429  24.599
H  31.398  21.117  24.867
C  29.833  22.628  25.077
C  30.286  23.703  25.919
H  31.248  23.791  26.413
C  29.257  24.606  26.000
H  29.185  25.540  26.548
N  28.168  24.166  25.252
C  26.967  24.871  25.100
S  25.431  24.158  25.576
C  26.810  26.171  24.684
H  27.641  26.785  24.345
C  25.456  26.603  24.720
H  25.138  27.593  24.400
C  24.571  25.636  25.156
C  23.128  25.708  25.277
C  22.233  24.693  25.583
H  22.542  23.666  25.771
C  20.885  25.121  25.614
H  20.034  24.480  25.830
S  22.283  27.225  25.031
C  20.736  26.464  25.336
C  19.461  27.193  25.295
O  18.375  26.689  25.507
O  19.636  28.503  24.991
C  18.432  29.292  24.930
H  17.920  29.280  25.900
H  18.761  30.303  24.677
H  17.757  28.898  24.160
35
Scan Cycle 10/19 ; Dihedral 1-14-15-16 = 90.00 ; Iteration 20 Energy -1711.501565
C  28.592  23.021  24.575
C  28.076  22.420  23.422
H  27.142  22.757  22.969
N  28.714  21.408  22.835
C  29.876  20.972  23.376
H  30.355  20.142  22.851
C  30.466  21.504  24.518
H  31.404  21.100  24.898
C  29.806  22.571  25.154
C  30.049  23.385  26.315
H  30.889  23.324  26.998
C  29.009  24.276  26.402
H  28.814  25.058  27.128
N  28.118  24.080  25.350
C  26.917  24.782  25.153
S  25.426  24.251  25.924
C  26.709  25.894  24.377
H  27.507  26.371  23.812
C  25.358  26.338  24.393
H  25.005  27.201  23.831
C  24.526  25.563  25.179
C  23.104  25.720  25.427
C  22.241  24.855  26.083
H  22.560  23.903  26.501
C  20.908  25.327  26.138
H  20.080  24.797  26.603
S  22.251  27.148  24.874
C  20.741  26.552  25.528
C  19.474  27.291  25.423
O  18.415  26.900  25.874
O  19.625  28.464  24.762
C  18.427  29.252  24.615
H  18.024  29.519  25.599
H  18.735  30.146  24.066
H  17.670  28.692  24.053
35
Scan Cycle 13/19 ; Dihedral 1-14-15-16 = 120.00 ; Iteration 20 Energy -1711.502404
C  28.662  23.072  24.481
C  28.399  22.805  23.134
H  27.548  23.250  22.615
N  29.183  21.987  22.431
C  30.244  21.417  23.047
H  30.853  20.760  22.422
C  30.582  21.613  24.383
H  31.448  21.113  24.817
C  29.763  22.468  25.141
C  29.738  22.917  26.508
H  30.436  22.661  27.297
C  28.659  23.755  26.632
H  28.300  24.311  27.492
N  27.997  23.875  25.413
C  26.822  24.602  25.192
S  25.381  24.282  26.150
C  26.584  25.555  24.232
H  27.347  25.894  23.536
C  25.253  26.054  24.268
H  24.890  26.828  23.594
C  24.468  25.493  25.257
C  23.093  25.789  25.608
C  22.322  25.238  26.621
H  22.693  24.475  27.303
C  21.010  25.765  26.679
H  20.251  25.466  27.399
S  22.174  26.981  24.709
C  20.765  26.718  25.714
C  19.499  27.439  25.523
O  18.507  27.276  26.208
O  19.563  28.313  24.488
C  18.359  29.062  24.233
H  18.092  29.664  25.109
H  18.594  29.703  23.379
H  17.532  28.383  23.994
35
Scan Cycle 16/19 ; Dihedral 1-14-15-16 = 150.00 ; Iteration 20 Energy -1711.502171
C  28.698  23.040  24.426
C  28.652  22.962  23.029
H  27.822  23.372  22.452
N  29.624  22.363  22.340
C  30.662  21.821  23.015
H  31.429  21.349  22.397
C  30.788  21.825  24.400
H  31.643  21.354  24.884
C  29.772  22.449  25.143
C  29.510  22.644  26.543
H  30.126  22.326  27.377
C  28.326  23.326  26.635
H  27.801  23.689  27.512
N  27.809  23.578  25.365
C  26.653  24.318  25.103
S  25.297  24.243  26.218
C  26.389  25.157  24.046
H  27.106  25.372  23.258
C  25.100  25.752  24.126
H  24.727  26.456  23.385
C  24.376  25.390  25.243
C  23.059  25.819  25.665
C  22.389  25.525  26.844
H  22.813  24.901  27.628
C  21.109  26.123  26.928
H  20.429  26.018  27.769
S  22.081  26.850  24.637
C  20.787  26.875  25.818
C  19.532  27.611  25.617
O  18.618  27.642  26.420
O  19.508  28.258  24.425
C  18.308  29.005  24.149
H  18.160  29.782  24.909
H  18.466  29.451  23.164
H  17.438  28.338  24.139
35
Scan Cycle 19/19 ; Dihedral 1-14-15-16 = 180.00 ; Iteration 20 Energy -1711.50001
C  28.769  23.100  24.398
C  29.001  23.328  23.034
H  28.307  23.873  22.398
N  30.105  22.881  22.433
C  31.015  22.196  23.155
H  31.896  21.857  22.606
C  30.884  21.915  24.511
H  31.652  21.357  25.045
C  29.729  22.378  25.159
C  29.238  22.296  26.507
H  29.716  21.815  27.353
C  28.037  22.946  26.529
H  27.361  23.100  27.362
N  27.720  23.448  25.266
C  26.551  24.160  24.982
S  25.393  24.457  26.275
C  26.114  24.707  23.796
H  26.654  24.655  22.859
C  24.857  25.362  23.917
H  24.365  25.849  23.077
C  24.315  25.329  25.182
C  23.071  25.882  25.671
C  22.549  25.836  26.957
H  23.055  25.348  27.787
C  21.298  26.486  27.080
H  20.725  26.561  28.001
S  21.989  26.747  24.595
C  20.851  27.033  25.896
C  19.592  27.766  25.712
O  18.785  27.978  26.598
O  19.429  28.184  24.432
C  18.216  28.912  24.167
H  18.175  29.821  24.780
H  18.256  29.164  23.104
H  17.341  28.289  24.386
