35
Scan Cycle 1/19 ; Dihedral 27-22-21-16 = 0.00 ; Iteration 20 Energy -1711.501152
C  28.968  24.452  24.123
C  29.594  24.564  25.370
H  29.032  24.525  26.304
N  30.914  24.733  25.462
C  31.643  24.797  24.325
H  32.718  24.931  24.463
C  31.112  24.711  23.042
H  31.758  24.782  22.167
C  29.723  24.538  22.924
C  28.796  24.429  21.829
H  29.025  24.447  20.769
C  27.548  24.283  22.377
H  26.585  24.149  21.895
N  27.626  24.289  23.768
C  26.540  24.167  24.640
S  25.076  25.100  24.366
C  26.443  23.405  25.780
H  27.237  22.745  26.121
C  25.190  23.548  26.433
H  24.930  23.007  27.340
C  24.316  24.409  25.797
C  22.954  24.737  26.175
C  22.249  24.267  27.276
H  22.669  23.569  27.997
C  20.937  24.783  27.364
H  20.224  24.539  28.149
S  21.969  25.841  25.238
C  20.621  25.651  26.339
C  19.338  26.342  26.162
O  18.388  26.227  26.913
O  19.332  27.128  25.057
C  18.107  27.844  24.811
H  17.883  28.514  25.650
H  18.284  28.415  23.896
H  17.276  27.142  24.677
35
Scan Cycle 2/19 ; Dihedral 27-22-21-16 = 10.00 ; Iteration 20 Energy -1711.501321
C  28.974  24.433  24.125
C  29.603  24.442  25.376
H  29.038  24.360  26.306
N  30.927  24.559  25.478
C  31.659  24.672  24.346
H  32.738  24.760  24.492
C  31.127  24.688  23.061
H  31.775  24.794  22.192
C  29.732  24.570  22.933
C  28.803  24.565  21.835
H  29.034  24.644  20.779
C  27.550  24.426  22.374
H  26.585  24.357  21.885
N  27.627  24.339  23.762
C  26.537  24.197  24.626
S  25.107  25.197  24.417
C  26.414  23.365  25.713
H  27.183  22.656  26.008
C  25.163  23.505  26.373
H  24.878  22.907  27.236
C  24.321  24.436  25.796
C  22.969  24.783  26.194
C  22.313  24.407  27.359
H  22.774  23.793  28.129
C  20.996  24.914  27.448
H  20.317  24.737  28.280
S  21.934  25.783  25.197
C  20.632  25.683  26.362
C  19.335  26.346  26.175
O  18.415  26.288  26.968
O  19.281  27.034  25.008
C  18.039  27.716  24.747
H  17.836  28.453  25.534
H  18.176  28.208  23.781
H  17.212  26.997  24.703
35
Scan Cycle 3/19 ; Dihedral 27-22-21-16 = 20.00 ; Iteration 20 Energy -1711.501442
C  28.981  24.411  24.128
C  29.605  24.318  25.377
H  29.035  24.196  26.299
N  30.932  24.382  25.487
C  31.672  24.542  24.366
H  32.752  24.584  24.517
C  31.144  24.659  23.084
H  31.798  24.799  22.223
C  29.746  24.599  22.948
C  28.821  24.696  21.851
H  29.057  24.835  20.802
C  27.562  24.567  22.379
H  26.596  24.563  21.886
N  27.632  24.388  23.758
C  26.535  24.229  24.611
S  25.142  25.291  24.468
C  26.380  23.333  25.642
H  27.123  22.578  25.889
C  25.132  23.471  26.307
H  24.816  22.822  27.121
C  24.325  24.466  25.791
C  22.986  24.835  26.209
C  22.379  24.557  27.426
H  22.884  24.031  28.233
C  21.057  25.052  27.519
H  20.413  24.945  28.389
S  21.899  25.726  25.164
C  20.644  25.718  26.384
C  19.332  26.349  26.189
O  18.442  26.350  27.018
O  19.225  26.934  24.970
C  17.966  27.577  24.699
H  17.782  28.377  25.426
H  18.061  27.986  23.689
H  17.147  26.848  24.748
35
Scan Cycle 4/19 ; Dihedral 27-22-21-16 = 30.00 ; Iteration 20 Energy -1711.501448
C  28.988  24.389  24.131
C  29.601  24.204  25.375
H  29.021  24.048  26.286
N  30.929  24.221  25.495
C  31.680  24.422  24.388
H  32.760  24.420  24.547
C  31.165  24.629  23.113
H  31.828  24.796  22.265
C  29.767  24.620  22.967
C  28.852  24.808  21.873
H  29.099  24.999  20.835
C  27.587  24.689  22.387
H  26.624  24.744  21.891
N  27.642  24.430  23.754
C  26.535  24.258  24.592
S  25.179  25.373  24.506
C  26.344  23.308  25.566
H  27.060  22.515  25.771
C  25.095  23.447  26.233
H  24.748  22.760  27.002
C  24.326  24.495  25.771
C  23.001  24.893  26.213
C  22.445  24.707  27.470
H  22.994  24.262  28.297
C  21.119  25.190  27.571
H  20.510  25.150  28.472
S  21.862  25.674  25.137
C  20.654  25.754  26.401
C  19.326  26.352  26.207
O  18.468  26.409  27.066
O  19.167  26.836  24.950
C  17.888  27.440  24.676
H  17.719  28.294  25.343
H  17.940  27.767  23.634
H  17.083  26.708  24.814
35
Scan Cycle 5/19 ; Dihedral 27-22-21-16 = 40.00 ; Iteration 20 Energy -1711.501167
C  28.997  24.367  24.134
C  29.591  24.098  25.372
H  28.998  23.911  26.268
N  30.917  24.067  25.504
C  31.686  24.303  24.416
H  32.764  24.260  24.584
C  31.190  24.592  23.149
H  31.867  24.783  22.317
C  29.794  24.634  22.990
C  28.897  24.907  21.901
H  29.160  25.145  20.876
C  27.623  24.800  22.397
H  26.667  24.911  21.896
N  27.657  24.468  23.749
C  26.537  24.288  24.568
S  25.219  25.450  24.533
C  26.305  23.291  25.485
H  26.993  22.465  25.649
C  25.055  23.434  26.149
H  24.676  22.720  26.877
C  24.324  24.529  25.737
C  23.016  24.957  26.204
C  22.513  24.862  27.491
H  23.103  24.491  28.327
C  21.182  25.331  27.607
H  20.609  25.355  28.531
S  21.820  25.628  25.113
C  20.662  25.791  26.415
C  19.318  26.355  26.228
O  18.492  26.467  27.114
O  19.101  26.737  24.946
C  17.803  27.300  24.677
H  17.645  28.201  25.282
H  17.809  27.545  23.611
H  17.017  26.570  24.904
35
Scan Cycle 6/19 ; Dihedral 27-22-21-16 = 50.00 ; Iteration 20 Energy -1711.50055
C  29.007  24.342  24.137
C  29.576  23.990  25.367
H  28.965  23.775  26.245
N  30.899  23.911  25.514
C  31.689  24.179  24.449
H  32.762  24.093  24.627
C  31.220  24.549  23.192
H  31.914  24.762  22.380
C  29.828  24.643  23.019
C  28.954  25.001  21.935
H  29.239  25.283  20.927
C  27.671  24.908  22.409
H  26.726  25.075  21.903
N  27.676  24.505  23.742
C  26.540  24.320  24.538
S  25.263  25.526  24.554
C  26.264  23.282  25.395
H  26.921  22.425  25.520
C  25.010  23.432  26.053
H  24.599  22.696  26.741
C  24.321  24.570  25.693
C  23.030  25.028  26.182
C  22.581  25.025  27.492
H  23.213  24.728  28.327
C  21.246  25.480  27.628
H  20.711  25.569  28.570
S  21.776  25.585  25.093
C  20.670  25.834  26.426
C  19.307  26.359  26.253
O  18.518  26.527  27.163
O  19.029  26.632  24.955
C  17.709  27.149  24.699
H  17.559  28.093  25.237
H  17.665  27.308  23.618
H  16.948  26.426  25.017
35
Scan Cycle 7/19 ; Dihedral 27-22-21-16 = 60.00 ; Iteration 20 Energy -1711.499657
C  29.017  24.318  24.142
C  29.555  23.884  25.360
H  28.922  23.643  26.215
N  30.871  23.753  25.521
C  31.687  24.050  24.483
H  32.754  23.920  24.673
C  31.251  24.500  23.241
H  31.964  24.732  22.451
C  29.866  24.649  23.053
C  29.021  25.091  21.976
H  29.331  25.415  20.988
C  27.729  25.016  22.426
H  26.798  25.240  21.917
N  27.699  24.545  23.736
C  26.545  24.355  24.505
S  25.312  25.604  24.577
C  26.219  23.279  25.295
H  26.843  22.393  25.378
C  24.962  23.437  25.947
H  24.517  22.681  26.591
C  24.320  24.617  25.645
C  23.041  25.101  26.155
C  22.649  25.197  27.478
H  23.321  24.976  28.304
C  21.311  25.639  27.634
H  20.815  25.796  28.590
S  21.730  25.540  25.079
C  20.677  25.879  26.434
C  19.295  26.362  26.280
O  18.543  26.593  27.206
O  18.955  26.518  24.977
C  17.614  26.987  24.738
H  17.466  27.971  25.201
H  17.520  27.052  23.651
H  16.884  26.280  25.150
35
Scan Cycle 8/19 ; Dihedral 27-22-21-16 = 70.00 ; Iteration 20 Energy -1711.498665
C  29.026  24.290  24.146
C  29.526  23.766  25.344
H  28.870  23.497  26.174
N  30.834  23.581  25.519
C  31.678  23.910  24.514
H  32.737  23.732  24.712
C  31.280  24.447  23.294
H  32.015  24.700  22.531
C  29.904  24.655  23.093
C  29.095  25.188  22.031
H  29.433  25.559  21.069
C  27.792  25.132  22.455
H  26.879  25.418  21.945
N  27.724  24.586  23.734
C  26.550  24.392  24.473
S  25.365  25.681  24.610
C  26.171  23.282  25.186
H  26.760  22.369  25.221
C  24.912  23.448  25.834
H  24.431  22.673  26.427
C  24.321  24.668  25.602
C  23.053  25.173  26.127
C  22.716  25.387  27.451
H  23.427  25.250  28.263
C  21.376  25.817  27.627
H  20.918  26.052  28.585
S  21.687  25.487  25.076
C  20.685  25.930  26.439
C  19.286  26.367  26.304
O  18.571  26.670  27.239
O  18.884  26.389  25.010
C  17.522  26.805  24.791
H  17.370  27.825  25.164
H  17.378  26.763  23.708
H  16.830  26.125  25.302
35
Scan Cycle 9/19 ; Dihedral 27-22-21-16 = 80.00 ; Iteration 20 Energy -1711.497867
C  29.031  24.259  24.151
C  29.490  23.637  25.317
H  28.810  23.337  26.116
N  30.788  23.391  25.498
C  31.660  23.755  24.530
H  32.708  23.525  24.732
C  31.303  24.389  23.345
H  32.061  24.666  22.612
C  29.940  24.662  23.138
C  29.169  25.297  22.103
H  29.537  25.719  21.174
C  27.858  25.260  22.503
H  26.964  25.615  22.001
N  27.748  24.632  23.740
C  26.554  24.433  24.447
S  25.421  25.757  24.667
C  26.120  23.290  25.072
H  26.672  22.353  25.046
C  24.861  23.462  25.718
H  24.342  22.667  26.251
C  24.328  24.721  25.578
C  23.065  25.240  26.111
C  22.780  25.595  27.415
H  23.525  25.556  28.207
C  21.438  26.017  27.602
H  21.013  26.343  28.549
S  21.651  25.418  25.092
C  20.696  25.985  26.440
C  19.280  26.372  26.322
O  18.599  26.763  27.249
O  18.823  26.242  25.053
C  17.443  26.600  24.851
H  17.280  27.652  25.116
H  17.254  26.434  23.787
H  16.791  25.968  25.465
35
Scan Cycle 10/19 ; Dihedral 27-22-21-16 = 90.00 ; Iteration 20 Energy -1711.49758
C  29.031  24.226  24.154
C  29.446  23.495  25.273
H  28.742  23.161  26.037
N  30.730  23.184  25.452
C  31.632  23.589  24.528
H  32.667  23.302  24.725
C  31.320  24.328  23.392
H  32.099  24.630  22.693
C  29.971  24.670  23.189
C  29.243  25.414  22.197
H  29.642  25.894  21.310
C  27.925  25.399  22.576
H  27.054  25.827  22.091
N  27.770  24.680  23.757
C  26.559  24.477  24.431
S  25.482  25.827  24.751
C  26.068  23.307  24.956
H  26.579  22.353  24.860
C  24.811  23.482  25.607
H  24.253  22.670  26.069
C  24.340  24.772  25.577
C  23.079  25.302  26.110
C  22.837  25.818  27.368
H  23.611  25.889  28.129
C  21.493  26.236  27.554
H  21.096  26.665  28.471
S  21.629  25.335  25.130
C  20.710  26.043  26.436
C  19.280  26.379  26.330
O  18.624  26.870  27.228
O  18.777  26.077  25.109
C  17.380  26.376  24.921
H  17.199  27.449  25.054
H  17.154  26.069  23.897
H  16.771  25.815  25.640
35
Scan Cycle 11/19 ; Dihedral 27-22-21-16 = 100.00 ; Iteration 20 Energy -1711.497942
C  29.030  24.194  24.159
C  29.397  23.361  25.223
H  28.667  22.998  25.948
N  30.664  22.984  25.393
C  31.597  23.422  24.516
H  32.615  23.077  24.702
C  31.333  24.260  23.437
H  32.136  24.583  22.775
C  30.003  24.673  23.244
C  29.322  25.523  22.305
H  29.755  26.053  21.463
C  27.999  25.533  22.664
H  27.154  26.034  22.203
N  27.795  24.731  23.783
C  26.566  24.527  24.423
S  25.542  25.893  24.840
C  26.018  23.341  24.845
H  26.491  22.376  24.678
C  24.762  23.517  25.497
H  24.165  22.695  25.887
C  24.351  24.826  25.577
C  23.095  25.365  26.106
C  22.884  26.036  27.295
H  23.681  26.216  28.014
C  21.538  26.445  27.478
H  21.160  26.975  28.350
S  21.613  25.256  25.179
C  20.721  26.097  26.423
C  19.278  26.382  26.332
O  18.643  26.969  27.185
O  18.740  25.912  25.181
C  17.330  26.151  25.012
H  17.124  27.228  25.015
H  17.076  25.710  24.045
H  16.763  25.672  25.820
35
Scan Cycle 12/19 ; Dihedral 27-22-21-16 = 110.00 ; Iteration 20 Energy -1711.498816
C  29.030  24.165  24.165
C  29.341  23.240  25.168
H  28.584  22.854  25.852
N  30.589  22.797  25.330
C  31.555  23.259  24.504
H  32.555  22.858  24.681
C  31.348  24.187  23.488
H  32.176  24.525  22.865
C  30.040  24.670  23.306
C  29.413  25.616  22.423
H  29.884  26.188  21.631
C  28.085  25.655  22.759
H  27.271  26.225  22.324
N  27.826  24.780  23.811
C  26.577  24.582  24.412
S  25.597  25.955  24.905
C  25.976  23.391  24.742
H  26.416  22.423  24.517
C  24.717  23.570  25.384
H  24.083  22.747  25.708
C  24.356  24.887  25.554
C  23.106  25.437  26.078
C  22.919  26.238  27.189
H  23.734  26.516  27.854
C  21.569  26.632  27.376
H  21.207  27.246  28.197
S  21.598  25.193  25.223
C  20.725  26.144  26.401
C  19.272  26.375  26.337
O  18.650  27.043  27.140
O  18.707  25.757  25.272
C  17.284  25.937  25.134
H  17.044  27.001  25.017
H  17.008  25.376  24.237
H  16.763  25.543  26.014
35
Scan Cycle 13/19 ; Dihedral 27-22-21-16 = 120.00 ; Iteration 20 Energy -1711.499895
C  29.032  24.142  24.175
C  29.285  23.148  25.127
H  28.496  22.749  25.767
N  30.511  22.651  25.291
C  31.515  23.127  24.519
H  32.495  22.680  24.695
C  31.366  24.121  23.557
H  32.222  24.466  22.977
C  30.082  24.661  23.373
C  29.512  25.681  22.534
H  30.023  26.283  21.791
C  28.177  25.748  22.840
H  27.395  26.371  22.420
N  27.860  24.821  23.829
C  26.589  24.632  24.386
S  25.644  26.008  24.935
C  25.939  23.446  24.628
H  26.351  22.477  24.356
C  24.671  23.631  25.249
H  24.003  22.813  25.512
C  24.351  24.949  25.490
C  23.111  25.511  26.014
C  22.944  26.406  27.055
H  23.775  26.762  27.661
C  21.592  26.779  27.263
H  21.244  27.454  28.041
S  21.578  25.151  25.248
C  20.724  26.179  26.374
C  19.264  26.362  26.354
O  18.653  27.084  27.118
O  18.675  25.630  25.377
C  17.243  25.756  25.285
H  16.964  26.797  25.080
H  16.948  25.106  24.457
H  16.771  25.432  26.221
35
Scan Cycle 14/19 ; Dihedral 27-22-21-16 = 130.00 ; Iteration 20 Energy -1711.500918
C  29.034  24.122  24.185
C  29.225  23.067  25.085
H  28.405  22.660  25.680
N  30.429  22.520  25.255
C  31.471  23.003  24.540
H  32.430  22.513  24.717
C  31.384  24.055  23.633
H  32.267  24.402  23.098
C  30.124  24.648  23.444
C  29.613  25.733  22.650
H  30.166  26.358  21.958
C  28.273  25.829  22.922
H  27.525  26.502  22.516
N  27.896  24.859  23.846
C  26.603  24.682  24.355
S  25.683  26.059  24.945
C  25.909  23.508  24.514
H  26.300  22.541  24.205
C  24.629  23.701  25.107
H  23.932  22.890  25.312
C  24.342  25.015  25.404
C  23.110  25.588  25.929
C  22.957  26.560  26.903
H  23.799  26.986  27.445
C  21.604  26.906  27.140
H  21.267  27.632  27.876
S  21.559  25.120  25.264
C  20.719  26.209  26.344
C  19.254  26.344  26.375
O  18.652  27.107  27.105
O  18.650  25.515  25.489
C  17.211  25.588  25.453
H  16.888  26.599  25.176
H  16.904  24.862  24.695
H  16.792  25.329  26.432
35
Scan Cycle 15/19 ; Dihedral 27-22-21-16 = 140.00 ; Iteration 20 Energy -1711.501731
C  29.034  24.103  24.196
C  29.165  22.995  25.042
H  28.315  22.583  25.588
N  30.346  22.402  25.218
C  31.424  22.891  24.563
H  32.362  22.362  24.742
C  31.397  23.992  23.714
H  32.308  24.340  23.226
C  30.162  24.634  23.519
C  29.710  25.777  22.772
H  30.304  26.421  22.132
C  28.365  25.900  23.007
H  27.651  26.618  22.617
N  27.930  24.893  23.865
C  26.617  24.730  24.322
S  25.716  26.104  24.947
C  25.885  23.570  24.401
H  26.258  22.608  24.059
C  24.592  23.773  24.960
H  23.868  22.973  25.106
C  24.329  25.081  25.307
C  23.104  25.661  25.831
C  22.959  26.698  26.738
H  23.807  27.190  27.212
C  21.606  27.019  27.010
H  21.277  27.788  27.705
S  21.542  25.093  25.278
C  20.712  26.235  26.311
C  19.247  26.324  26.398
O  18.650  27.123  27.093
O  18.635  25.410  25.607
C  17.195  25.433  25.630
H  16.824  26.409  25.294
H  16.881  24.642  24.944
H  16.827  25.237  26.645
35
Scan Cycle 16/19 ; Dihedral 27-22-21-16 = 150.00 ; Iteration 20 Energy -1711.502254
C  29.032  24.086  24.209
C  29.105  22.931  24.997
H  28.227  22.516  25.494
N  30.263  22.296  25.177
C  31.374  22.787  24.583
H  32.291  22.222  24.762
C  31.406  23.932  23.794
H  32.340  24.280  23.354
C  30.195  24.620  23.597
C  29.799  25.813  22.898
H  30.431  26.472  22.313
C  28.451  25.963  23.098
H  27.771  26.720  22.725
N  27.961  24.925  23.886
C  26.630  24.775  24.291
S  25.744  26.143  24.952
C  25.866  23.633  24.290
H  26.225  22.679  23.914
C  24.559  23.845  24.813
H  23.813  23.057  24.897
C  24.316  25.143  25.210
C  23.095  25.728  25.732
C  22.950  26.824  26.568
H  23.797  27.378  26.968
C  21.600  27.120  26.875
H  21.273  27.929  27.524
S  21.532  25.066  25.296
C  20.706  26.257  26.276
C  19.244  26.305  26.420
O  18.647  27.133  27.081
O  18.633  25.314  25.725
C  17.195  25.292  25.810
H  16.776  26.227  25.419
H  16.882  24.441  25.198
H  16.877  25.160  26.851
35
Scan Cycle 17/19 ; Dihedral 27-22-21-16 = 160.00 ; Iteration 20 Energy -1711.502501
C  29.027  24.069  24.221
C  29.048  22.873  24.947
H  28.145  22.454  25.394
N  30.184  22.199  25.127
C  31.325  22.693  24.595
H  32.222  22.096  24.771
C  31.409  23.878  23.871
H  32.365  24.224  23.479
C  30.223  24.605  23.675
C  29.878  25.845  23.031
H  30.543  26.518  22.503
C  28.528  26.018  23.198
H  27.878  26.812  22.846
N  27.988  24.952  23.912
C  26.642  24.814  24.268
S  25.767  26.170  24.968
C  25.851  23.694  24.184
H  26.200  22.751  23.771
C  24.533  23.913  24.672
H  23.767  23.140  24.688
C  24.305  25.198  25.122
C  23.084  25.784  25.640
C  22.931  26.937  26.395
H  23.771  27.552  26.713
C  21.584  27.212  26.733
H  21.253  28.061  27.327
S  21.531  25.035  25.327
C  20.699  26.276  26.241
C  19.243  26.288  26.438
O  18.642  27.145  27.056
O  18.642  25.226  25.845
C  17.210  25.165  25.989
H  16.744  26.053  25.545
H  16.905  24.260  25.457
H  16.936  25.103  27.049
35
Scan Cycle 18/19 ; Dihedral 27-22-21-16 = 170.00 ; Iteration 20 Energy -1711.50258
C  29.022  24.053  24.233
C  28.995  22.816  24.887
H  28.071  22.393  25.283
N  30.110  22.106  25.059
C  31.278  22.603  24.589
H  32.156  21.975  24.754
C  31.409  23.826  23.939
H  32.383  24.172  23.596
C  30.245  24.592  23.753
C  29.946  25.874  23.175
H  30.642  26.562  22.707
C  28.597  26.070  23.314
H  27.975  26.898  22.991
N  28.012  24.976  23.948
C  26.653  24.850  24.255
S  25.786  26.186  24.999
C  25.842  23.753  24.089
H  26.183  22.825  23.637
C  24.514  23.978  24.545
H  23.731  23.224  24.488
C  24.297  25.244  25.051
C  23.073  25.830  25.559
C  22.901  27.039  26.217
H  23.725  27.714  26.443
C  21.558  27.298  26.578
H  21.215  28.186  27.104
S  21.539  25.001  25.377
C  20.692  26.292  26.203
C  19.244  26.274  26.447
O  18.632  27.162  27.009
O  18.662  25.146  25.969
C  17.239  25.050  26.168
H  16.727  25.879  25.665
H  16.950  24.091  25.728
H  17.001  25.074  27.238
35
Scan Cycle 19/19 ; Dihedral 27-22-21-16 = 180.00 ; Iteration 20 Energy -1711.502613
C  29.016  24.038  24.244
C  28.945  22.765  24.824
H  28.001  22.340  25.168
N  30.041  22.023  24.985
C  31.231  22.522  24.578
H  32.091  21.867  24.731
C  31.405  23.778  24.006
H  32.396  24.123  23.711
C  30.262  24.577  23.832
C  30.006  25.898  23.323
H  30.729  26.596  22.915
C  28.657  26.114  23.434
H  28.061  26.972  23.143
N  28.032  24.998  23.986
C  26.663  24.882  24.246
S  25.799  26.194  25.036
C  25.837  23.813  23.997
H  26.173  22.905  23.504
C  24.499  24.042  24.421
H  23.702  23.313  24.290
C  24.290  25.285  24.986
C  23.062  25.870  25.485
C  22.865  27.127  26.038
H  23.666  27.852  26.165
C  21.524  27.370  26.420
H  21.164  28.291  26.871
S  21.557  24.971  25.438
C  20.686  26.306  26.165
C  19.246  26.261  26.454
O  18.619  27.174  26.956
O  18.693  25.076  26.094
C  17.280  24.950  26.345
H  16.724  25.715  25.790
H  17.013  23.948  25.998
H  17.073  25.058  27.416
