9    
Scan Cycle 1/19 ; Dihedral 6-1-2-3 = 0.00 ; Iteration 27 Energy -16.54306025
O        1.2567977966    0.5638699754   -0.0714302755
C        2.5587804518    0.2837762990   -0.0356533279
C        3.1062152085   -0.9285012616    0.1183701189
C        4.5400932147   -1.1314366366    0.1437478250
O        5.0886847870   -2.1975554651    0.2782105599
H        0.7275459800   -0.2406417106    0.0306506429
H        3.1634918602    1.1745522264   -0.1491182611
H        2.4882055340   -1.8100762498    0.2300719953
H        5.1261351671   -0.1976371772    0.0259007225
9    
Scan Cycle 2/19 ; Dihedral 6-1-2-3 = 20.00 ; Iteration 9 Energy -16.54148186
O        1.2550812216    0.5433657417   -0.1618191548
C        2.5566156883    0.2752546646   -0.0407286159
C        3.1085940269   -0.9376437986    0.0897604248
C        4.5432558050   -1.1296070687    0.1547672499
O        5.0967763058   -2.1949820149    0.2726744557
H        0.7154980271   -0.1929627277    0.1593633599
H        3.1611009149    1.1655315554   -0.1643089851
H        2.4946686658   -1.8241469321    0.1820568480
H        5.1243593447   -0.1884594197    0.0789844176
9    
Scan Cycle 3/19 ; Dihedral 6-1-2-3 = 40.00 ; Iteration 10 Energy -16.53724363
O        1.2476061489    0.5038800571   -0.2422675750
C        2.5498988145    0.2526196099   -0.0494027288
C        3.1145835616   -0.9557804306    0.0635093896
C        4.5514041922   -1.1268041084    0.1645996634
O        5.1180241567   -2.1860767039    0.2699268991
H        0.6881698528   -0.0887842482    0.2763675598
H        3.1551933993    1.1444278609   -0.1710213191
H        2.5119962656   -1.8517961840    0.1324575049
H        5.1190736084   -0.1753358527    0.1265806061
9    
Scan Cycle 4/19 ; Dihedral 6-1-2-3 = 60.00 ; Iteration 10 Energy -16.53181996
O        1.2305843282    0.4401701289   -0.3050475948
C        2.5400766770    0.2201356831   -0.0673760624
C        3.1226219951   -0.9788009573    0.0387664429
C        4.5623501255   -1.1240850153    0.1726902546
O        5.1452617619   -2.1735815941    0.2776124600
H        0.6664888020    0.0599831468    0.3778579041
H        3.1408454066    1.1206701297   -0.1615475389
H        2.5355179127   -1.8864576692    0.0760382784
H        5.1122029910   -0.1616838526    0.1617558561
9    
Scan Cycle 5/19 ; Dihedral 6-1-2-3 = 80.00 ; Iteration 10 Energy -16.52766933
O        1.2038377225    0.3502985867   -0.3413977937
C        2.5279809969    0.1805507497   -0.0969463184
C        3.1311258297   -1.0046875221    0.0160461374
C        4.5737827311   -1.1220335130    0.1774261147
O        5.1733038754   -2.1590481133    0.2999786404
H        0.6700947252    0.2437057690    0.4522316577
H        3.1098872167    1.1000942461   -0.1274720878
H        2.5615709227   -1.9236344907    0.0125959219
H        5.1043659799   -0.1488957123    0.1782877278
9    
Scan Cycle 6/19 ; Dihedral 6-1-2-3 = 100.00 ; Iteration 11 Energy -16.52728805
O        1.1760915898    0.2522597313   -0.3400676876
C        2.5112791969    0.1353144811   -0.1200599304
C        3.1400026661   -1.0348792779   -0.0013687392
C        4.5837271812   -1.1198399193    0.1759488535
O        5.2028339263   -2.1410870534    0.3275925754
H        0.6963762857    0.4493885411    0.4708217012
H        3.0606909970    1.0753240666   -0.0670920737
H        2.5912674776   -1.9646330906   -0.0463558055
H        5.0936806792   -0.1354974790    0.1713311062
9    
Scan Cycle 7/19 ; Dihedral 6-1-2-3 = 120.00 ; Iteration 10 Energy -16.53019892
O        1.1552122276    0.1690637545   -0.3035698999
C        2.4912756329    0.0922642847   -0.1086409175
C        3.1479584776   -1.0654432564   -0.0018484009
C        4.5915308015   -1.1172634340    0.1682915921
O        5.2379194504   -2.1237921535    0.3094913122
H        0.7190763954    0.6439480438    0.4124956179
H        3.0160512693    1.0425883343   -0.0112386479
H        2.6194637704   -2.0048015829   -0.0697892821
H        5.0774619748   -0.1202139904    0.1755586260
9    
Scan Cycle 8/19 ; Dihedral 6-1-2-3 = 140.00 ; Iteration 9 Energy -16.53383075
O        1.1387504326    0.1057846691   -0.2383669474
C        2.4732253922    0.0584791997   -0.0676700459
C        3.1538136094   -1.0900715265    0.0074619760
C        4.5970954370   -1.1150190590    0.1576879026
O        5.2702091848   -2.1095579021    0.2608368188
H        0.7345957252    0.7977531044    0.2974930870
H        2.9861599306    1.0129624716    0.0370656594
H        2.6405291942   -2.0365330144   -0.0702197365
H        5.0615710940   -0.1074479427    0.1864612860
9    
Scan Cycle 9/19 ; Dihedral 6-1-2-3 = 160.00 ; Iteration 9 Energy -16.53645634
O        1.1246381784    0.0630232384   -0.1494479686
C        2.4597743976    0.0357244586   -0.0135407120
C        3.1569778805   -1.1063115440    0.0207783474
C        4.6004852369   -1.1131431489    0.1456042715
O        5.2936219923   -2.0985641581    0.1980897871
H        0.7495346631    0.8999848835    0.1469041650
H        2.9681395763    0.9920078550    0.0821891834
H        2.6531653472   -2.0572367648   -0.0601020616
H        5.0496127279   -0.0991348197    0.2002749878
9    
Scan Cycle 10/19 ; Dihedral 6-1-2-3 = 180.00 ; Iteration 8 Energy -16.53738196
O        1.1145725205    0.0444399327   -0.0445893371
C        2.4525221109    0.0257500534    0.0448616445
C        3.1572180890   -1.1126912041    0.0347177451
C        4.6019076465   -1.1120124788    0.1329402542
O        5.3051227033   -2.0919371234    0.1323016325
H        0.7633310831    0.9415836691   -0.0227037428
H        2.9604634439    0.9827821571    0.1278301632
H        2.6566907655   -2.0651395908   -0.0473562366
H        5.0441216373   -0.0964254152    0.2127478769
9    
Scan Cycle 11/19 ; Dihedral 6-1-2-3 = 200.00 ; Iteration 9 Energy -16.53645680
O        1.1103396701    0.0520573199    0.0618590500
C        2.4517762931    0.0299110573    0.1047386299
C        3.1552009543   -1.1074634827    0.0492236777
C        4.6023660253   -1.1119619149    0.1202034497
O        5.3024542442   -2.0923112336    0.0650294333
H        0.7724993702    0.9171486013   -0.1960369908
H        2.9614888418    0.9877167378    0.1746559629
H        2.6515084062   -2.0581993690   -0.0344523314
H        5.0483161947   -0.1005477160    0.2255291187
9    
Scan Cycle 12/19 ; Dihedral 6-1-2-3 = 220.00 ; Iteration 9 Energy -16.53383157
O        1.1121105685    0.0855723897    0.1557315739
C        2.4576772916    0.0468510335    0.1623268220
C        3.1500748718   -1.0928140603    0.0634567280
C        4.6005518891   -1.1125489432    0.1075607376
O        5.2880050518   -2.0966660963   -0.0009002843
H        0.7788745641    0.8310355810   -0.3566593968
H        2.9732500925    1.0037060904    0.2235336947
H        2.6374225985   -2.0387518207   -0.0241134288
H        5.0579830721   -0.1100341739    0.2398135537
9    
Scan Cycle 13/19 ; Dihedral 6-1-2-3 = 240.00 ; Iteration 9 Energy -16.53019960
O        1.1191517608    0.1420592748    0.2286383230
C        2.4696926675    0.0762734852    0.2083193064
C        3.1426950920   -1.0692664339    0.0747423889
C        4.5963446013   -1.1135103878    0.0958132558
O        5.2627361616   -2.1052672056   -0.0565035281
H        0.7799094665    0.6895927450   -0.4880216978
H        2.9970639812    1.0276421327    0.2773027656
H        2.6163279794   -2.0072009683   -0.0229553576
H        5.0720282898   -0.1239726422    0.2534145438
9    
Scan Cycle 14/19 ; Dihedral 6-1-2-3 = 260.00 ; Iteration 10 Energy -16.52728808
O        1.1343358149    0.2212682509    0.2755829795
C        2.4876796683    0.1179801786    0.2264629756
C        3.1346031576   -1.0387587924    0.0771929419
C        4.5896147151   -1.1153010586    0.0874388063
O        5.2303915118   -2.1199791591   -0.0835803714
H        0.7666517002    0.5015275741   -0.5686869512
H        3.0338321018    1.0543982313    0.3407476260
H        2.5911790814   -1.9647398698   -0.0445780950
H        5.0876622489   -0.1400453550    0.2601700883
9    
Scan Cycle 15/19 ; Dihedral 6-1-2-3 = 280.00 ; Iteration 11 Energy -16.52766916
O        1.1614456069    0.3190433746    0.2902114776
C        2.5075810062    0.1652000829    0.2095898321
C        3.1282246914   -1.0070903570    0.0621740909
C        4.5802506730   -1.1175648698    0.0840881389
O        5.1976471123   -2.1408695961   -0.0626895050
H        0.7393172184    0.2947484817   -0.5742675336
H        3.0724726879    1.0740433825    0.4098210896
H        2.5693422197   -1.9178562981   -0.1022094241
H        5.0996687841   -0.1533042007    0.2540318335
9    
Scan Cycle 16/19 ; Dihedral 6-1-2-3 = 300.00 ; Iteration 10 Energy -16.53181898
O        1.1923360954    0.4119379068    0.2670278779
C        2.5232766368    0.2076543869    0.1853342731
C        3.1225415409   -0.9789132580    0.0405436790
C        4.5681610028   -1.1199097235    0.0873150524
O        5.1669611129   -2.1573353899   -0.0446915097
H        0.7267189894    0.1043438211   -0.5188997280
H        3.0991589519    1.0903291736    0.4499069064
H        2.5517721451   -1.8743151174   -0.1654044166
H        5.1050235248   -0.1674417996    0.2696178655
9    
Scan Cycle 17/19 ; Dihedral 6-1-2-3 = 320.00 ; Iteration 10 Energy -16.53724333
O        1.2165909240    0.4810552754    0.2139776264
C        2.5345150999    0.2416159927    0.1731409629
C        3.1175189818   -0.9533292805    0.0172000131
C        4.5560217531   -1.1229370752    0.0933182247
O        5.1389200308   -2.1701208550   -0.0403182131
H        0.7357673807   -0.0533954329   -0.4312914372
H        3.1137496565    1.1112942963    0.4639678453
H        2.5359228280   -1.8339829232   -0.2213964465
H        5.1069433453   -0.1838499978    0.3021514245
9    
Scan Cycle 18/19 ; Dihedral 6-1-2-3 = 340.00 ; Iteration 9 Energy -16.54148102
O        1.2343945278    0.5282112859    0.1398732729
C        2.5420889936    0.2648582303    0.1681132515
C        3.1149614089   -0.9325996506   -0.0078853612
C        4.5466172199   -1.1266378270    0.1017149530
O        5.1182731679   -2.1786086674   -0.0461692989
H        0.7479255630   -0.1686934141   -0.3228767681
H        3.1205338090    1.1327105168    0.4603721853
H        2.5252749995   -1.8013970772   -0.2701632363
H        5.1058803105   -0.2014933966    0.3477710019
9    
Scan Cycle 19/19 ; Dihedral 6-1-2-3 = 360.00 ; Iteration 9 Energy -16.54306027
O        1.2484145978    0.5575584787    0.0528712602
C        2.5452897489    0.2737357683    0.1644927902
C        3.1165762099   -0.9207621090   -0.0350312038
C        4.5422458093   -1.1298930153    0.1118514381
O        5.1111073401   -2.1808831503   -0.0538843658
H        0.7430716873   -0.2290775046   -0.1993156218
H        3.1231995177    1.1447283067    0.4462909527
H        2.5251607669   -1.7824875744   -0.3165037357
H        5.1008843219   -0.2165692001    0.3999784859
