49   
Iteration 0 Energy -68.31023416
O       -4.4710000000   -1.5361000000    0.0905000000
O       -5.6188000000    0.9753000000   -0.0811000000
O        5.1625000000    0.5695000000   -0.0997000000
C       -1.2209000000   -0.8317000000   -0.2017000000
C       -0.4821000000    0.5357000000   -0.4703000000
C       -3.0038000000    0.1167000000    1.0462000000
C       -1.8514000000   -0.8737000000    1.1997000000
C       -2.4967000000   -0.9058000000   -1.1119000000
C        0.9884000000    0.6333000000    0.0944000000
C       -3.6676000000   -0.3924000000   -0.2474000000
C       -0.3220000000   -2.0551000000   -0.4569000000
C       -1.3919000000    1.7479000000   -0.1363000000
C       -2.4167000000    1.5304000000    0.9816000000
C        1.7435000000   -0.6786000000   -0.3542000000
C        1.0741000000   -1.9483000000    0.1552000000
C        1.0367000000    0.8330000000    1.6293000000
C       -4.5845000000    0.5870000000   -0.9677000000
C        1.7610000000    1.8511000000   -0.4907000000
C        3.2146000000   -0.5444000000   -0.1101000000
C        3.1013000000    1.8722000000   -0.6493000000
C        3.8167000000    0.6946000000   -0.3059000000
C        4.2309000000   -1.4546000000    0.2464000000
C        5.3980000000   -0.7259000000    0.2399000000
H       -0.3415000000    0.5842000000   -1.5631000000
H       -3.6779000000    0.0397000000    1.9072000000
H       -1.1861000000   -0.6021000000    2.0159000000
H       -2.2356000000   -1.8757000000    1.4322000000
H       -2.3648000000   -0.3090000000   -2.0216000000
H       -2.6844000000   -1.9384000000   -1.4328000000
H       -0.2098000000   -2.1924000000   -1.5413000000
H       -0.8043000000   -2.9694000000   -0.0890000000
H       -1.9406000000    2.0033000000   -1.0514000000
H       -0.8134000000    2.6482000000    0.0921000000
H       -1.9341000000    1.7452000000    1.9434000000
H       -3.2193000000    2.2709000000    0.8849000000
H        1.6699000000   -0.7251000000   -1.4553000000
H        1.0259000000   -1.9792000000    1.2481000000
H        1.6508000000   -2.8307000000   -0.1490000000
H        2.0514000000    1.0518000000    1.9842000000
H        0.4166000000    1.6762000000    1.9486000000
H        0.7233000000   -0.0489000000    2.1864000000
H       -5.0524000000    0.1195000000   -1.8415000000
H       -4.0679000000    1.4861000000   -1.3088000000
H        1.2088000000    2.7568000000   -0.7218000000
H       -5.0925000000   -1.2746000000    0.7905000000
H        3.6240000000    2.7536000000   -0.9997000000
H        4.1386000000   -2.5085000000    0.4650000000
H       -6.2132000000    0.2149000000    0.0339000000
H        6.4308000000   -0.9731000000    0.4374000000
49   
Iteration 1 Energy -68.31943773
O       -4.4371698868   -1.5323316127    0.0957662838
O       -5.5743975859    1.1297834482   -0.0956440892
O        5.0847822508    0.6509404883   -0.0244678688
C       -1.2052648240   -0.8546467707   -0.2051574128
C       -0.4768979329    0.4715551514   -0.4948335276
C       -2.9556387663    0.1060610867    1.0728429699
C       -1.8062359195   -0.8857145698    1.1988990952
C       -2.4792768239   -0.8950505367   -1.0832151017
C        0.9585813798    0.5788848184    0.0588580893
C       -3.6363428889   -0.3857827745   -0.2139389985
C       -0.3241804617   -2.0678670513   -0.4840044404
C       -1.3720462387    1.6779617430   -0.1574640750
C       -2.3630537939    1.5006548689    0.9945300708
C        1.7177191308   -0.6883376312   -0.3796078014
C        1.0643021940   -1.9557831170    0.1319150751
C        1.0275735177    0.7831702596    1.5685615576
C       -4.5272217038    0.6473325462   -0.9233474632
C        1.6523216901    1.7890385121   -0.5302501455
C        3.1710904756   -0.5307329980   -0.0834923953
C        2.9846662083    1.8429449045   -0.6307482895
C        3.7520088451    0.6979310843   -0.2608891197
C        4.2142936371   -1.3951858191    0.2898324166
C        5.3453523882   -0.6281280821    0.3120883297
H       -0.3366186346    0.4955993283   -1.5842202333
H       -3.6367612445    0.0536428255    1.9276748778
H       -1.1174526269   -0.6149956879    1.9927793515
H       -2.1917385272   -1.8853359949    1.4103633262
H       -2.3625534308   -0.2915953417   -1.9830917039
H       -2.7011013364   -1.9155709523   -1.3904455137
H       -0.2167631511   -2.1899422835   -1.5673211867
H       -0.8246331846   -2.9634899382   -0.1089287116
H       -1.9358328088    1.9244397804   -1.0621679508
H       -0.7557144721    2.5510814891    0.0570874103
H       -1.8672594782    1.6957661436    1.9501192588
H       -3.1607583775    2.2411910693    0.8985326869
H        1.6376183719   -0.7188863953   -1.4804643518
H        1.0087992685   -1.9662166824    1.2210843065
H        1.6600222059   -2.8212602783   -0.1685284948
H        2.0516869146    1.0206935782    1.8586718038
H        0.3944576416    1.6128351133    1.8716383292
H        0.7343282026   -0.1052931181    2.1184808540
H       -4.9434542002    0.1906258310   -1.8310113790
H       -3.9561345722    1.5263012743   -1.2166471130
H        1.0537716260    2.6530006123   -0.7728939386
H       -5.0283250641   -1.2941391740    0.8206878571
H        3.4875861976    2.7361514123   -0.9647113251
H        4.1559578871   -2.4413273148    0.5082710474
H       -6.2286574201    0.4263147021   -0.0090026278
H        6.3671653224   -0.8528879470    0.5423102614
49   
Iteration 2 Energy -68.32070788
O       -4.4426753501   -1.5461337854    0.0892772797
O       -5.6086148227    1.0915857073   -0.0890102045
O        5.0861347889    0.6232051646   -0.0026140045
C       -1.2108128578   -0.8422371782   -0.2097105175
C       -0.4756038612    0.4879749505   -0.4925131280
C       -2.9669430417    0.1012494992    1.0763749255
C       -1.8144970508   -0.8871978112    1.1972634641
C       -2.4883816903   -0.8834834235   -1.0873645612
C        0.9733267372    0.5920430923    0.0597887569
C       -3.6512166815   -0.3947087360   -0.2111139947
C       -0.3271419394   -2.0544091579   -0.5062689102
C       -1.3856588640    1.6895827734   -0.1520683867
C       -2.3772836213    1.5035000385    1.0007288234
C        1.7233551236   -0.6797561321   -0.3840359246
C        1.0599416343   -1.9514369338    0.1174812191
C        1.0725811956    0.8075665438    1.5767902342
C       -4.5563851397    0.6308557466   -0.9148227456
C        1.6867359985    1.7839733773   -0.5530959117
C        3.1746390611   -0.5317474031   -0.0683328432
C        3.0171995915    1.8569289955   -0.6519045718
C        3.7618339783    0.6967306938   -0.2535197865
C        4.2115071955   -1.4086600107    0.3137391917
C        5.3453679521   -0.6515990809    0.3452238360
H       -0.3308739471    0.5100240697   -1.5817891565
H       -3.6553551849    0.0480276066    1.9257149041
H       -1.1296670748   -0.6184059476    1.9926550493
H       -2.1992410630   -1.8896588730    1.3930550734
H       -2.3859895099   -0.2794442484   -1.9873767200
H       -2.7116832756   -1.9051014774   -1.3892585928
H       -0.2138050645   -2.1571767216   -1.5896339456
H       -0.8331101742   -2.9519352976   -0.1442449729
H       -1.9512086072    1.9366689655   -1.0529132124
H       -0.7759754642    2.5637883178    0.0726931845
H       -1.8826992757    1.6941935863    1.9563939300
H       -3.1769755731    2.2404021856    0.9035904526
H        1.6515459791   -0.7050172374   -1.4857586841
H        0.9977492669   -1.9667396041    1.2049069521
H        1.6571543989   -2.8132554700   -0.1876031754
H        2.1049407331    1.0333379978    1.8382756929
H        0.4577875715    1.6468123946    1.8850345986
H        0.7804575059   -0.0704467109    2.1405472149
H       -4.9553996234    0.1640229001   -1.8250001939
H       -3.9957966525    1.5191496444   -1.1990900815
H        1.0908467183    2.6379877559   -0.8248581592
H       -5.0311215080   -1.3244132932    0.8196458415
H        3.5303501973    2.7391288993   -1.0029290412
H        4.1423754031   -2.4525585619    0.5377963214
H       -6.2498519140    0.3794116763    0.0044750654
H        6.3607378017   -0.8892294868    0.5898794147
49   
Iteration 3 Energy -68.32110183
O       -4.4395105133   -1.5467446318    0.1107582097
O       -5.6196721695    1.0616953814   -0.0477699573
O        5.0889101149    0.6240231967    0.0471797819
C       -1.2118140822   -0.8357479944   -0.2313356058
C       -0.4748874906    0.4968453653   -0.5156750549
C       -2.9501297315    0.1022242745    1.0795359960
C       -1.7966931283   -0.8865191769    1.1853288178
C       -2.5001699758   -0.8776512395   -1.0955841003
C        0.9723354042    0.5984892215    0.0427561180
C       -3.6543674430   -0.3964421107   -0.1989254105
C       -0.3302972137   -2.0498279605   -0.5441950680
C       -1.3831095893    1.6986410032   -0.1696489560
C       -2.3604921851    1.5081790583    0.9949280431
C        1.7274734119   -0.6793772021   -0.3962950296
C        1.0531611524   -1.9552330166    0.0898453510
C        1.0606616191    0.8173024971    1.5652094729
C       -4.5756873028    0.6244531480   -0.8889941968
C        1.6909618222    1.7909229484   -0.5773278146
C        3.1736870089   -0.5364557900   -0.0487392922
C        3.0255699590    1.8489016399   -0.6391263882
C        3.7702393221    0.6913516477   -0.2224268134
C        4.2042363497   -1.4163335538    0.3504649355
C        5.3354322462   -0.6520948518    0.3964707518
H       -0.3296879740    0.5209318379   -1.6049732469
H       -3.6306912685    0.0528164468    1.9359577445
H       -1.0998936522   -0.6174524657    1.9702570577
H       -2.1787686877   -1.8903513996    1.3801407656
H       -2.4144279130   -0.2757113331   -1.9984661358
H       -2.7262828016   -1.9022216473   -1.3901697360
H       -0.2140947904   -2.1369621133   -1.6278718701
H       -0.8384581494   -2.9507396682   -0.1930047433
H       -1.9560546574    1.9469564718   -1.0639893505
H       -0.7700668681    2.5718569495    0.0544622610
H       -1.8505544121    1.6957401812    1.9424947454
H       -3.1606209758    2.2453467287    0.9084090718
H        1.6790624998   -0.7001029967   -1.4989771209
H        0.9782429544   -1.9725706803    1.1761549013
H        1.6522517314   -2.8161955773   -0.2136266852
H        2.0906798709    1.0381326169    1.8363876711
H        0.4450965421    1.6593304331    1.8653848218
H        0.7564324195   -0.0588415589    2.1257816600
H       -4.9803876545    0.1537484578   -1.7945406039
H       -4.0270023254    1.5197906078   -1.1761077535
H        1.1014742088    2.6402512321   -0.8828466431
H       -5.0139873885   -1.3321419989    0.8541598759
H        3.5537913352    2.7192898691   -0.9947806199
H        4.1300173703   -2.4602121158    0.5770821872
H       -6.2448567373    0.3376321930    0.0617625167
H        6.3455497381   -0.8955223245    0.6589854390
49   
Iteration 4 Energy -68.32126232
O       -4.4391937814   -1.5417907320    0.1182662507
O       -5.6180286110    1.0614487549   -0.0300135833
O        5.0797076024    0.6303375273    0.0755942989
C       -1.2134802658   -0.8375618136   -0.2395064250
C       -0.4771289740    0.4931818942   -0.5240337574
C       -2.9403994116    0.0982302036    1.0833275494
C       -1.7896762513   -0.8940298641    1.1802601551
C       -2.5044160987   -0.8748539873   -1.0970550954
C        0.9673468292    0.5942899866    0.0332001884
C       -3.6530163493   -0.3937485840   -0.1922214541
C       -0.3327842573   -2.0492574384   -0.5626495722
C       -1.3816867893    1.6947663113   -0.1761511597
C       -2.3491630063    1.5028031143    0.9962377713
C        1.7247996103   -0.6819533044   -0.4004923460
C        1.0472420088   -1.9583688057    0.0791349648
C        1.0585745486    0.8177078869    1.5525138154
C       -4.5742179275    0.6346094971   -0.8743069089
C        1.6866453096    1.7820667648   -0.5936862894
C        3.1660069872   -0.5323823491   -0.0370955268
C        3.0212791216    1.8473936296   -0.6425480787
C        3.7635119700    0.6948939477   -0.2076689364
C        4.1983584739   -1.4038180957    0.3725343705
C        5.3322182041   -0.6430363802    0.4307787080
H       -0.3331896604    0.5177393492   -1.6131332459
H       -3.6169417907    0.0520855808    1.9431857848
H       -1.0879811099   -0.6284748944    1.9614726152
H       -2.1721346035   -1.8982812920    1.3722682577
H       -2.4217011372   -0.2710444505   -1.9985843553
H       -2.7323686887   -1.8995161053   -1.3923691656
H       -0.2122369915   -2.1223812188   -1.6465995631
H       -0.8418348885   -2.9541581448   -0.2233048873
H       -1.9612357140    1.9404997883   -1.0668452282
H       -0.7651835455    2.5679197626    0.0420103983
H       -1.8305982032    1.6873627853    1.9395148583
H       -3.1498569276    2.2400824868    0.9175703185
H        1.6900974598   -0.7008813779   -1.5029526536
H        0.9661757676   -1.9755438662    1.1652616660
H        1.6478832477   -2.8184624137   -0.2232712485
H        2.0891516489    1.0371173474    1.8218451463
H        0.4442128925    1.6621052189    1.8494076197
H        0.7527962028   -0.0574785824    2.1139932763
H       -4.9793593154    0.1718145365   -1.7840445703
H       -4.0251991602    1.5323738326   -1.1538303837
H        1.0941892908    2.6213307158   -0.9217761298
H       -5.0021452281   -1.3309356235    0.8718871763
H        3.5524863075    2.7118826385   -1.0082804839
H        4.1218602094   -2.4468575878    0.6017484261
H       -6.2367758145    0.3313155745    0.0805035737
H        6.3399908094   -0.8871422238    0.7044038589
49   
Iteration 5 Energy -68.32134717
O       -4.4399881416   -1.5371067419    0.1196763330
O       -5.6221465274    1.0609115353   -0.0193566842
O        5.0675518216    0.6400843413    0.0993186366
C       -1.2152219693   -0.8393129973   -0.2450598374
C       -0.4793052374    0.4894721487   -0.5267385570
C       -2.9338187878    0.0920869942    1.0873656464
C       -1.7865342584   -0.9047788134    1.1756397763
C       -2.5078645683   -0.8705683614   -1.0975453551
C        0.9648694913    0.5905473509    0.0258038581
C       -3.6521290075   -0.3899463234   -0.1875086036
C       -0.3331595288   -2.0451690320   -0.5800255295
C       -1.3819890754    1.6901048182   -0.1765403896
C       -2.3402916035    1.4946718639    1.0027290701
C        1.7244948895   -0.6843249238   -0.4012815181
C        1.0422973473   -1.9593994703    0.0718363977
C        1.0679579738    0.8229160053    1.5399159990
C       -4.5716801368    0.6475118565   -0.8617428594
C        1.6815986663    1.7703849731   -0.6143196546
C        3.1610820803   -0.5317781098   -0.0226936292
C        3.0151705485    1.8431041849   -0.6541087643
C        3.7545294835    0.6986120223   -0.1960526782
C        4.1888492062   -1.4014902179    0.3986104725
C        5.3158694682   -0.6314583645    0.4628565033
H       -0.3367922425    0.5148911890   -1.6157980446
H       -3.6070821663    0.0473934574    1.9498346249
H       -1.0830713273   -0.6459622291    1.9567417102
H       -2.1704616802   -1.9094776946    1.3617652577
H       -2.4258603360   -0.2630775095   -1.9962849486
H       -2.7371063665   -1.8939883692   -1.3968467734
H       -0.2044866756   -2.0988405665   -1.6641310067
H       -0.8430063212   -2.9562036087   -0.2594999190
H       -1.9695595637    1.9315560715   -1.0634319753
H       -0.7644459002    2.5649018520    0.0335339314
H       -1.8145450211    1.6746053872    1.9428888848
H       -3.1418111490    2.2321521291    0.9341381930
H        1.7040537868   -0.7022731725   -1.5034976545
H        0.9552759060   -1.9772567563    1.1577475043
H        1.6431088762   -2.8196099303   -0.2295058083
H        2.1005079949    1.0424298201    1.8011106715
H        0.4575374361    1.6705539940    1.8359080679
H        0.7659631482   -0.0492682954    2.1081573175
H       -4.9706179124    0.1974037739   -1.7811448800
H       -4.0228176734    1.5495994981   -1.1261564823
H        1.0853594438    2.5955364731   -0.9699357753
H       -4.9883862683   -1.3330470961    0.8862703805
H        3.5475331637    2.7002495962   -1.0357057777
H        4.1128837767   -2.4437007521    0.6333025149
H       -6.2311680437    0.3212662325    0.0876443494
H        6.3214529806   -0.8715082326    0.7466170047
49   
Iteration 6 Energy -68.32140341
O       -4.4405783600   -1.5373174261    0.1222999764
O       -5.6325984542    1.0514271055   -0.0167442146
O        5.0703281772    0.6354929975    0.1052845416
C       -1.2159696068   -0.8377068646   -0.2486682861
C       -0.4794874439    0.4918012914   -0.5293910213
C       -2.9326742781    0.0936558829    1.0870381238
C       -1.7851346333   -0.9037836822    1.1725943080
C       -2.5116024108   -0.8693846494   -1.0985184285
C        0.9656944687    0.5919906629    0.0234790103
C       -3.6539047504   -0.3888784590   -0.1865521203
C       -0.3328328324   -2.0418616491   -0.5855903264
C       -1.3823604028    1.6927236669   -0.1771152791
C       -2.3379929677    1.4962333748    1.0039270387
C        1.7263874010   -0.6848693560   -0.4014995511
C        1.0413323717   -1.9588507979    0.0693639909
C        1.0659999039    0.8262489816    1.5383932520
C       -4.5775590401    0.6456774109   -0.8586994353
C        1.6845456559    1.7707526653   -0.6189424643
C        3.1632555403   -0.5333761793   -0.0205015472
C        3.0187772878    1.8392532620   -0.6544125270
C        3.7572488083    0.6960527714   -0.1929592294
C        4.1899871293   -1.4021364220    0.4039016594
C        5.3190801182   -0.6355984559    0.4706754337
H       -0.3369226424    0.5184062720   -1.6187545741
H       -3.6031689203    0.0477994933    1.9516293529
H       -1.0804034959   -0.6468000429    1.9537167932
H       -2.1693302976   -1.9083004081    1.3589028085
H       -2.4317334757   -0.2621749903   -1.9979028339
H       -2.7414396743   -1.8922260140   -1.3978211047
H       -0.2007471417   -2.0905612037   -1.6698082952
H       -0.8428703978   -2.9550068827   -0.2716461590
H       -1.9725886625    1.9331263456   -1.0627158344
H       -0.7663726045    2.5687972958    0.0302524760
H       -1.8095620058    1.6742455835    1.9431248833
H       -3.1387916052    2.2352201415    0.9402881220
H        1.7094555798   -0.7027483870   -1.5042225819
H        0.9523984846   -1.9773254888    1.1550026718
H        1.6403120109   -2.8209885002   -0.2305994580
H        2.0976184618    1.0458100056    1.8034164182
H        0.4561573263    1.6745380939    1.8335068154
H        0.7622847927   -0.0444169263    2.1084214336
H       -4.9720801698    0.1973735275   -1.7810194486
H       -4.0340864552    1.5518024663   -1.1187196108
H        1.0907871271    2.5943497024   -0.9818786931
H       -4.9818805943   -1.3362891646    0.8947054589
H        3.5522517212    2.6951019255   -1.0370730584
H        4.1125683733   -2.4438429953    0.6391244700
H       -6.2333711683    0.3051947658    0.0912763500
H        6.3241737522   -0.8752307464    0.7559306941
49   
Iteration 7 Energy -68.32142892
O       -4.4418959001   -1.5351545664    0.1263895009
O       -5.6423090888    1.0388863466   -0.0148008432
O        5.0725653841    0.6344443361    0.1107904507
C       -1.2168850626   -0.8369388883   -0.2524396101
C       -0.4794802795    0.4929760184   -0.5329322132
C       -2.9307157445    0.0962990575    1.0869644339
C       -1.7837058283   -0.9025399356    1.1697519020
C       -2.5148496090   -0.8680141301   -1.0995497846
C        0.9661283037    0.5918846502    0.0209324811
C       -3.6546188971   -0.3866030812   -0.1851189263
C       -0.3335048844   -2.0399884546   -0.5909781711
C       -1.3817306343    1.6941705610   -0.1791424757
C       -2.3336879797    1.4983376373    1.0044585266
C        1.7269244438   -0.6861697054   -0.4019821637
C        1.0392191203   -1.9593289650    0.0673715870
C        1.0623120773    0.8271754683    1.5366499701
C       -4.5808135306    0.6451577933   -0.8551834033
C        1.6886641465    1.7692290399   -0.6217939436
C        3.1636961233   -0.5337487824   -0.0192662914
C        3.0233519554    1.8380281434   -0.6558853151
C        3.7596421443    0.6950336026   -0.1905815906
C        4.1890729951   -1.4021782094    0.4092990350
C        5.3189111916   -0.6366904372    0.4777916110
H       -0.3371077513    0.5210220084   -1.6225337267
H       -3.5986405814    0.0495689284    1.9536139640
H       -1.0772833577   -0.6480253949    1.9506912623
H       -2.1691820785   -1.9066005927    1.3565186338
H       -2.4360291911   -0.2610089661   -1.9996156108
H       -2.7462438093   -1.8901797159   -1.3988813833
H       -0.1976828962   -2.0841777878   -1.6752475671
H       -0.8440924402   -2.9551234311   -0.2836048499
H       -1.9751398501    1.9320884655   -1.0634572842
H       -0.7666298144    2.5715186384    0.0240796271
H       -1.8020494541    1.6736189848    1.9424616596
H       -3.1323624223    2.2402593473    0.9453984692
H        1.7125597305   -0.7038291048   -1.5052271561
H        0.9477970734   -1.9775031667    1.1527378443
H        1.6364381239   -2.8237862708   -0.2300037970
H        2.0932327508    1.0462400534    1.8053239307
H        0.4528572917    1.6761995822    1.8303860045
H        0.7559690880   -0.0422818544    2.1074355694
H       -4.9690005633    0.2002071773   -1.7816935013
H       -4.0428835456    1.5569199541   -1.1069012261
H        1.0963707110    2.5915736911   -0.9892222260
H       -4.9732593168   -1.3374663231    0.9063479429
H        3.5563964800    2.6943340158   -1.0385068936
H        4.1111318502   -2.4435848537    0.6452992876
H       -6.2324465477    0.2843455203    0.0932944626
H        6.3235900741   -0.8751964041    0.7650617978
49   
Iteration 8 Energy -68.32144766
O       -4.4430109387   -1.5324034114    0.1281137570
O       -5.6533837221    1.0243421899   -0.0176907864
O        5.0718545615    0.6312206070    0.1134188014
C       -1.2175378088   -0.8360307535   -0.2540754356
C       -0.4795529246    0.4941223699   -0.5339894987
C       -2.9299650585    0.0979971440    1.0875430295
C       -1.7838141806   -0.9023995496    1.1683686637
C       -2.5162064355   -0.8655123875   -1.0999700181
C        0.9669007152    0.5926856094    0.0190902111
C       -3.6547541596   -0.3837968683   -0.1842596792
C       -0.3338995840   -2.0378942840   -0.5944891982
C       -1.3822584487    1.6946820205   -0.1796945507
C       -2.3307591772    1.4993376290    1.0064369849
C        1.7270077657   -0.6868490908   -0.4020322878
C        1.0373457525   -1.9589575227    0.0672121438
C        1.0646433256    0.8303606688    1.5345054946
C       -4.5820953296    0.6466671502   -0.8530617487
C        1.6885919024    1.7695196039   -0.6255633928
C        3.1635862402   -0.5356000242   -0.0183633115
C        3.0236170256    1.8353274524   -0.6581554345
C        3.7593326310    0.6929001659   -0.1902030534
C        4.1874979433   -1.4044355486    0.4140144909
C        5.3174604101   -0.6394164041    0.4832613273
H       -0.3376457055    0.5232312858   -1.6236596149
H       -3.5969479731    0.0502136291    1.9549231365
H       -1.0771000845   -0.6510425677    1.9500588482
H       -2.1708973561   -1.9062635737    1.3537906241
H       -2.4371929173   -0.2577657541   -1.9997591069
H       -2.7488567886   -1.8870057080   -1.4003840292
H       -0.1945507542   -2.0775247172   -1.6786719585
H       -0.8451366898   -2.9547616931   -0.2932614078
H       -1.9791903430    1.9286233303   -1.0627932582
H       -0.7683218090    2.5738664436    0.0188044638
H       -1.7967129941    1.6713684134    1.9436481500
H       -3.1274085879    2.2438373534    0.9510364536
H        1.7132333032   -0.7049387949   -1.5055200305
H        0.9436101283   -1.9759579035    1.1523935839
H        1.6335587527   -2.8251349993   -0.2273912490
H        2.0961234152    1.0498652766    1.8011108670
H        0.4560299582    1.6800634186    1.8277918936
H        0.7592365983   -0.0378412773    2.1075708615
H       -4.9602750819    0.2074593785   -1.7863084298
H       -4.0496597244    1.5653550312   -1.0914841550
H        1.0969597853    2.5916346782   -0.9947897995
H       -4.9630808267   -1.3393726807    0.9165924571
H        3.5568098984    2.6915569381   -1.0404670850
H        4.1091144283   -2.4455877307    0.6510805229
H       -6.2316238129    0.2602294361    0.0871337659
H        6.3219246757   -0.8765739787    0.7726379876
49   
Iteration 9 Energy -68.32146760
O       -4.4430118920   -1.5292834886    0.1298089751
O       -5.6669675634    1.0076251521   -0.0245402767
O        5.0718904134    0.6286604267    0.1121516409
C       -1.2177350389   -0.8347200493   -0.2547327703
C       -0.4790288832    0.4951212312   -0.5346636105
C       -2.9288565642    0.1004403801    1.0880525042
C       -1.7833774125   -0.9010368953    1.1678633722
C       -2.5166314657   -0.8627124093   -1.1000242337
C        0.9673748891    0.5929485874    0.0187226754
C       -3.6545373097   -0.3806148404   -0.1835140220
C       -0.3346446119   -2.0366431726   -0.5954806030
C       -1.3824690239    1.6951200665   -0.1810061018
C       -2.3276695067    1.5008499330    1.0077337429
C        1.7261711850   -0.6873216026   -0.4016359887
C        1.0354450838   -1.9583157855    0.0686878799
C        1.0651982621    0.8318215827    1.5340076456
C       -4.5836289509    0.6487788259   -0.8521772845
C        1.6899401554    1.7689241619   -0.6256093846
C        3.1628063224   -0.5369600559   -0.0189870681
C        3.0248847443    1.8339354980   -0.6598690270
C        3.7597210500    0.6907483349   -0.1920544531
C        4.1856246446   -1.4063372346    0.4153917607
C        5.3158362177   -0.6418147568    0.4838014450
H       -0.3368434023    0.5243980206   -1.6241803452
H       -3.5954953234    0.0524574555    1.9556649410
H       -1.0760574521   -0.6517224508    1.9495287329
H       -2.1715994554   -1.9047790440    1.3522187855
H       -2.4376670309   -0.2544232091   -1.9993746030
H       -2.7504455391   -1.8838926598   -1.4010451956
H       -0.1934591505   -2.0744779974   -1.6794783476
H       -0.8467635502   -2.9538588896   -0.2967860623
H       -1.9824895615    1.9249640984   -1.0630409226
H       -0.7695810949    2.5760617149    0.0133996618
H       -1.7909319706    1.6697288031    1.9438910017
H       -3.1224319476    2.2475510879    0.9553583049
H        1.7112514534   -0.7060980721   -1.5050453806
H        0.9395231823   -1.9729401044    1.1537412400
H        1.6318054095   -2.8253134838   -0.2229014918
H        2.0970001747    1.0506781367    1.7997607265
H        0.4571821491    1.6823202126    1.8260357824
H        0.7591113306   -0.0357060419    2.1075226955
H       -4.9487751033    0.2159686057   -1.7935635266
H       -4.0577010377    1.5751196043   -1.0749510847
H        1.0987552777    2.5923694460   -0.9925473736
H       -4.9505851907   -1.3413728456    0.9274662943
H        3.5581667156    2.6904012590   -1.0413682230
H        4.1066096435   -2.4472914024    0.6531866670
H       -6.2323183986    0.2330627729    0.0747395716
H        6.3200051274   -0.8790189062    0.7743413337
49   
Iteration 10 Energy -68.32148903
O       -4.4435848006   -1.5241445782    0.1304523921
O       -5.6883748533    0.9798710505   -0.0401383208
O        5.0727652972    0.6245070264    0.1045602625
C       -1.2180240864   -0.8326268691   -0.2533847009
C       -0.4779606463    0.4964369228   -0.5335761521
C       -2.9286299595    0.1043633095    1.0888671222
C       -1.7845349364   -0.8986074085    1.1690485607
C       -2.5159386791   -0.8583297084   -1.0995001189
C        0.9678232904    0.5936533775    0.0206948539
C       -3.6542190600   -0.3760170329   -0.1829026462
C       -0.3363800829   -2.0361753274   -0.5930334344
C       -1.3827694159    1.6957574445   -0.1826596610
C       -2.3243777833    1.5034260450    1.0091980605
C        1.7242181241   -0.6874506336   -0.4000900816
C        1.0328443093   -1.9574183561    0.0728292053
C        1.0664954089    0.8336547358    1.5357637238
C       -4.5846771937    0.6526294523   -0.8526220784
C        1.6912728309    1.7691681604   -0.6224841192
C        3.1617614124   -0.5389726114   -0.0213673292
C        3.0260005708    1.8325808434   -0.6614888698
C        3.7605352978    0.6874549562   -0.1975152497
C        4.1841081163   -1.4091480858    0.4127052592
C        5.3153927289   -0.6459332557    0.4773228976
H       -0.3345791474    0.5248948534   -1.6227911144
H       -3.5962760755    0.0577277176    1.9558391454
H       -1.0772767431   -0.6505640522    1.9508470151
H       -2.1739735025   -1.9021700981    1.3522553263
H       -2.4359539806   -0.2489221304   -1.9977610821
H       -2.7508052019   -1.8791001010   -1.4017846535
H       -0.1946637225   -2.0749376171   -1.6767538256
H       -0.8498519201   -2.9523472124   -0.2934943606
H       -1.9860481808    1.9197827573   -1.0638011469
H       -0.7713748832    2.5790405167    0.0067155126
H       -1.7840319628    1.6687615218    1.9437749529
H       -3.1167354985    2.2527870852    0.9599437539
H        1.7055011800   -0.7071365385   -1.5031819810
H        0.9345498314   -1.9685164368    1.1577176245
H        1.6301017430   -2.8247451384   -0.2152907845
H        2.0989025526    1.0508586624    1.8000807570
H        0.4597686218    1.6855911073    1.8260833964
H        0.7591931786   -0.0329510147    2.1097931285
H       -4.9256736411    0.2307945882   -1.8080744801
H       -4.0684770069    1.5903211369   -1.0486432308
H        1.1004791946    2.5963270438   -0.9819047574
H       -4.9336739918   -1.3444403862    0.9408245998
H        3.5599349154    2.6890633088   -1.0419597188
H        4.1040244052   -2.4498508975    0.6513949715
H       -6.2336668302    0.1891956177    0.0469669000
H        6.3194607767   -0.8847437510    0.7670244763
49   
Iteration 11 Energy -68.32149596
O       -4.4436660597   -1.5224110504    0.1307539165
O       -5.6978675154    0.9675684891   -0.0477260311
O        5.0733691803    0.6224777310    0.1004574127
C       -1.2180476685   -0.8314538578   -0.2523310319
C       -0.4774214549    0.4970827358   -0.5328750489
C       -2.9286934249    0.1061822982    1.0890525021
C       -1.7848923737   -0.8969912590    1.1700729831
C       -2.5156753780   -0.8567678992   -1.0989879267