3    
Iteration 0 Energy -74.48710200
O       -0.0859698290   -0.0636457750    0.0449685530
H        0.4040871970    1.5027429180    0.4879929010
H        1.1689722790   -0.5505579440   -1.4342328680
3    
Iteration 1 Energy -74.48827615
O       -0.1252912779   -0.0900757723    0.0670941675
H        0.4412363647    1.4714124703    0.4343754627
H        1.1711445371   -0.4927975019   -1.4027410490
3    
Iteration 2 Energy -74.48869148
O       -0.1295067870   -0.0958244095    0.0677722339
H        0.4412943397    1.4645258597    0.4303186308
H        1.1753019795   -0.4801623012   -1.3993622796
3    
Iteration 3 Energy -74.48892936
O       -0.1307347504   -0.0996904194    0.0666963546
H        0.4385169266    1.4604665278    0.4306074440
H        1.1793072058   -0.4722370414   -1.3985752058
3    
Iteration 4 Energy -74.48904913
O       -0.1303687949   -0.1006412277    0.0657950025
H        0.4367432879    1.4596171960    0.4318046206
H        1.1807147520   -0.4704369765   -1.3988710235
3    
Iteration 5 Energy -74.48908751
O       -0.1300079813   -0.1006918881    0.0654215977
H        0.4361122748    1.4596622148    0.4324322647
H        1.1809848175   -0.4704314086   -1.3991252564
3    
Iteration 6 Energy -74.48909403
O       -0.1299365378   -0.1006398288    0.0653837219
H        0.4360941154    1.4597419395    0.4324958796
H        1.1809314238   -0.4705632534   -1.3991509900
3    
Iteration 7 Energy -74.48909459
O       -0.1299315643   -0.1006223584    0.0653891107
H        0.4361217896    1.4597658557    0.4324833738
H        1.1808986634   -0.4706047027   -1.3991438666
