3    
Iteration 0 Energy -74.64535983
O       -0.0859698290   -0.0636457750    0.0449685530
H        0.2599527770    1.0420403610    0.3576916220
H        1.1689722790   -0.5505579440   -1.4342328680
3    
Iteration 1 Energy -74.64648545
O       -0.1464101325   -0.0947660833    0.0845009772
H        0.3283827921    0.9974884371    0.2665725470
H        1.1609825444   -0.4748857063   -1.3826462230
3    
Iteration 2 Energy -74.64806413
O       -0.1257419947   -0.0874423645    0.0690545312
H        0.3003132658    1.0089233934    0.2999742461
H        1.1683839047   -0.4936443874   -1.4006014721
3    
Iteration 3 Energy -74.64784629
O       -0.1247068152   -0.0892038508    0.0670442205
H        0.2963908693    1.0085920782    0.3035206270
H        1.1712710842   -0.4915515910   -1.4021375382
3    
Iteration 4 Energy -74.64773849
O       -0.1248167058   -0.0911793145    0.0660010635
H        0.2941138775    1.0072979489    0.3049390859
H        1.1736579071   -0.4882820059   -1.4025128348
3    
Iteration 5 Energy -74.64769922
O       -0.1250744824   -0.0918993737    0.0658283579
H        0.2937404497    1.0067934711    0.3050018711
H        1.1742890598   -0.4870574754   -1.4024029094
3    
Iteration 6 Energy -74.64768994
O       -0.1251114406   -0.0919655645    0.0658251101
H        0.2937757348    1.0067892058    0.3049657372
H        1.1742906935   -0.4869870252   -1.4023635254
3    
Iteration 7 Energy -74.64768714
O       -0.1251105053   -0.0919804565    0.0658155509
H        0.2937721189    1.0067969148    0.3049736445
H        1.1742933314   -0.4869798488   -1.4023618700
3    
Iteration 8 Energy -74.64768603
O       -0.1251087076   -0.0919836359    0.0658119761
H        0.2937704768    1.0068018226    0.3049780426
H        1.1742931261   -0.4869815836   -1.4023626891
3    
Iteration 9 Energy -74.64768557
O       -0.1251086022   -0.0919848366    0.0658111625
H        0.2937705514    1.0068033651    0.3049788509
H        1.1742928931   -0.4869819325   -1.4023626794
