3    
Iteration 0 Energy -74.92868945
O       -0.0859698290   -0.0636457750    0.0449685530
H        0.2022990090    0.8577593390    0.3055711110
H        0.6669954360   -0.3557930760   -0.8425522990
3    
Iteration 1 Energy -74.92529836
O       -0.1437093623   -0.1119882949    0.0713164322
H        0.2726753942    0.7884637190    0.1988220688
H        0.6606770437   -0.2969740064   -0.8023517328
3    
Iteration 2 Energy -74.93038068
O       -0.1149881175   -0.0852473331    0.0592029316
H        0.2440373108    0.8282514702    0.2496589252
H        0.6606354598   -0.3302383703   -0.8217134101
3    
Iteration 3 Energy -74.93042306
O       -0.1056829815   -0.0726283589    0.0586303436
H        0.2420793383    0.8430731092    0.2598449967
H        0.6569619034   -0.3439587075   -0.8265201627
3    
Iteration 4 Energy -74.93031793
O       -0.1059511993   -0.0696261528    0.0598197474
H        0.2466608470    0.8451013564    0.2571405128
H        0.6548052848   -0.3464739586   -0.8257626331
3    
Iteration 5 Energy -74.93028981
O       -0.1057233204   -0.0656689079    0.0615051279
H        0.2529652484    0.8477777421    0.2537461837
H        0.6515392072   -0.3497908282   -0.8249081827
3    
Iteration 6 Energy -74.93028112
O       -0.1057839047   -0.0656514124    0.0614771707
H        0.2531477194    0.8476542785    0.2539374167
H        0.6514782906   -0.3497378670   -0.8249898316
3    
Iteration 7 Energy -74.93027897
O       -0.1061478887   -0.0654638381    0.0611332584
H        0.2544901841    0.8468089444    0.2552944766
H        0.6509892537   -0.3494091662   -0.8254964926
3    
Iteration 8 Energy -74.93027844
O       -0.1062151346   -0.0653936258    0.0610399439
H        0.2547555119    0.8466599094    0.2556133845
H        0.6508902787   -0.3493698110   -0.8256093169
