3    
Iteration 0 Energy -74.94510275
O       -0.0859698290   -0.0636457750    0.0449685530
H        0.1734721260    0.7656188270    0.2795108550
H        0.4787541200   -0.2827562510   -0.6206720860
3    
Iteration 1 Energy -74.94510971
O       -0.0897602743   -0.0664542148    0.0469528017
H        0.1766821371    0.7625022206    0.2746360678
H        0.4793351209   -0.2768314856   -0.6177816078
3    
Iteration 2 Energy -74.94512375
O       -0.0880495281   -0.0651889321    0.0460587949
H        0.1752284892    0.7639207896    0.2768438790
H        0.4790783009   -0.2795155050   -0.6190954322
3    
Iteration 3 Energy -74.94512375
O       -0.0880603037   -0.0651991623    0.0460659763
H        0.1752364049    0.7639113398    0.2768269338
H        0.4790816877   -0.2794961197   -0.6190857182
