3    
Iteration 0 Energy -74.75885279
O       -0.0859698290   -0.0636457750    0.0449685530
H        0.1446452420    0.6734783160    0.2534505990
H        0.8552367520   -0.4288299020   -1.0644325120
3    
Iteration 1 Energy -74.75738073
O       -0.1395977688   -0.0949722617    0.0766779144
H        0.2281451531    0.6128356770    0.1398258279
H        0.8403007775   -0.3828453214   -1.0234748112
3    
Iteration 2 Energy -74.76095144
O       -0.1135864325   -0.0774012628    0.0609620461
H        0.1933648831    0.6489198721    0.1954215278
H        0.8446852250   -0.4096728976   -1.0434147150
3    
Iteration 3 Energy -74.76095614
O       -0.1077940250   -0.0707848017    0.0605091046
H        0.1914595013    0.6574583806    0.2022415409
H        0.8427416806   -0.4172503400   -1.0465982265
3    
Iteration 4 Energy -74.76090244
O       -0.1075615591   -0.0683535767    0.0611767442
H        0.1944280131    0.6591327035    0.2010508682
H        0.8411411659   -0.4193030726   -1.0463366883
3    
Iteration 5 Energy -74.76088564
O       -0.1070246980   -0.0647785343    0.0620850219
H        0.1990000794    0.6614765989    0.1995688669
H        0.8385866354   -0.4222624402   -1.0460497741
3    
Iteration 6 Energy -74.76088053
O       -0.1070459692   -0.0646907734    0.0620869114
H        0.1993102093    0.6613895605    0.1997583441
H        0.8384421788   -0.4222627580   -1.0461454338
3    
Iteration 7 Energy -74.76087910
O       -0.1072635303   -0.0644408801    0.0618823626
H        0.2007575614    0.6606474015    0.2010584679
H        0.8378271086   -0.4220163496   -1.0466930721
3    
Iteration 8 Energy -74.76087908
O       -0.1073899601   -0.0644402047    0.0617382259
H        0.2010510289    0.6603545484    0.2015141971
H        0.8377435169   -0.4218701456   -1.0468488063
