3    
Iteration 0 Energy -74.55261756
O       -0.0859698290   -0.0636457750    0.0449685530
H        0.3464334290    1.3184618950    0.4358723900
H        1.1689722790   -0.5505579440   -1.4342328680
3    
Iteration 1 Energy -74.55386000
O       -0.1331640062   -0.0927929311    0.0730200731
H        0.3942916083    1.2821225766    0.3691360387
H        1.1683082573   -0.4850714693   -1.3955480436
3    
Iteration 2 Energy -74.55456712
O       -0.1259597802   -0.0924836147    0.0663323574
H        0.3812787103    1.2832866567    0.3822169760
H        1.1741168904   -0.4865448827   -1.4019412651
3    
Iteration 3 Energy -74.55461845
O       -0.1247874495   -0.0950721208    0.0637107313
H        0.3757502602    1.2813955091    0.3863880670
H        1.1784729582   -0.4820652506   -1.4034907320
3    
Iteration 4 Energy -74.55461074
O       -0.1250954558   -0.0971218877    0.0628132759
H        0.3737257020    1.2796576110    0.3873081226
H        1.1808054609   -0.4782776122   -1.4035133343
3    
Iteration 5 Energy -74.55461743
O       -0.1253306504   -0.0975508927    0.0627881822
H        0.3737119621    1.2792855735    0.3871050274
H        1.1810543462   -0.4774765917   -1.4032851484
3    
Iteration 6 Energy -74.55462550
O       -0.1253598796   -0.0975778466    0.0628003705
H        0.3737818930    1.2792698095    0.3870291940
H        1.1810135998   -0.4774338929   -1.4032215054
3    
Iteration 7 Energy -74.55462896
O       -0.1253597062   -0.0975718655    0.0628036690
H        0.3738064537    1.2792784726    0.3870108028
H        1.1809888180   -0.4774485581   -1.4032064147
3    
Iteration 8 Energy -74.55463014
O       -0.1253519015   -0.0975597028    0.0628032773
H        0.3738133814    1.2792919187    0.3870119918
H        1.1809740092   -0.4774742009   -1.4032072161
3    
Iteration 9 Energy -74.55463035
O       -0.1253508395   -0.0975592927    0.0628024915
H        0.3738132316    1.2792929302    0.3870127100
H        1.1809730470   -0.4774756432   -1.4032071495
