3    
Iteration 0 Energy -74.48271591
O       -0.0859698290   -0.0636457750    0.0449685530
H        0.4329140800    1.5948834300    0.5140531570
H        1.1062251740   -0.5262123350   -1.3602727970
3    
Iteration 1 Energy -74.48394314
O       -0.1253813489   -0.0919173380    0.0661099460
H        0.4678275216    1.5620322636    0.4616833134
H        1.1107232294   -0.4650896120   -1.3290443513
3    
Iteration 2 Energy -74.48435975
O       -0.1310837065   -0.0970546023    0.0685605719
H        0.4716507283    1.5553610523    0.4541624462
H        1.1126022530   -0.4532811917   -1.3239740981
3    
Iteration 3 Energy -74.48462785
O       -0.1323828701   -0.0988425821    0.0687600222
H        0.4718144404    1.5530127860    0.4526418722
H        1.1137375276   -0.4491450215   -1.3226529552
3    
Iteration 4 Energy -74.48475884
O       -0.1323427311   -0.0992321345    0.0684953705
H        0.4713226232    1.5524932421    0.4528087789
H        1.1141890348   -0.4482359994   -1.3225551917
3    
Iteration 5 Energy -74.48480734
O       -0.1321428374   -0.0993505599    0.0682359657
H        0.4708478311    1.5523865864    0.4531993568
H        1.1144637035   -0.4480110185   -1.3226863404
3    
Iteration 6 Energy -74.48482137
O       -0.1320772068   -0.0993522808    0.0681723672
H        0.4707521624    1.5523949538    0.4532953791
H        1.1144935580   -0.4480177448   -1.3227187448
3    
Iteration 7 Energy -74.48482503
O       -0.1320630027   -0.0993388383    0.0681666047
H        0.4707546524    1.5524108472    0.4533022072
H        1.1144766976   -0.4480471525   -1.3227197936
3    
Iteration 8 Energy -74.48482594
O       -0.1320639336   -0.0993246821    0.0681756686
H        0.4707784711    1.5524233397    0.4532867118
H        1.1144535646   -0.4480739075   -1.3227133366
