3    
Iteration 0 Energy -74.88406364
O       -0.0859698290   -0.0636457750    0.0449685530
H        0.1734721260    0.7656188270    0.2795108550
H        0.7297425410   -0.3801386850   -0.9165123700
3    
Iteration 1 Energy -74.88080245
O       -0.1420732044   -0.1045902781    0.0738190929
H        0.2498390066    0.7001292495    0.1694992096
H        0.7196108156   -0.3269216357   -0.8759318282
3    
Iteration 2 Energy -74.88573924
O       -0.1143151120   -0.0821197349    0.0600028826
H        0.2177983902    0.7382186686    0.2227872610
H        0.7217520710   -0.3572016160   -0.8956677450
3    
Iteration 3 Energy -74.88582346
O       -0.1048747530   -0.0710920873    0.0588463172
H        0.2137680217    0.7521126760    0.2342147419
H        0.7190470840   -0.3696624397   -0.9008031995
3    
Iteration 4 Energy -74.88573148
O       -0.1051778180   -0.0684266579    0.0595845519
H        0.2175252133    0.7537988527    0.2322305773
H        0.7173200328   -0.3718382382   -0.9001802325
3    
Iteration 5 Energy -74.88570527
O       -0.1048795083   -0.0654412465    0.0606255564
H        0.2218878405    0.7557907193    0.2303332579
H        0.7149895893   -0.3743268657   -0.8997520718
3    
Iteration 6 Energy -74.88569782
O       -0.1049071223   -0.0653555420    0.0606239233
H        0.2221679081    0.7557176652    0.2305087624
H        0.7148633747   -0.3743331857   -0.8998390056
3    
Iteration 7 Energy -74.88569590
O       -0.1051406283   -0.0651017214    0.0603974571
H        0.2234062729    0.7551066785    0.2316139668
H        0.7143610192   -0.3741545659   -0.9002783628
3    
Iteration 8 Energy -74.88569548
O       -0.1052521373   -0.0651061250    0.0602712904
H        0.2236499080    0.7548520301    0.2320051495
H        0.7142949862   -0.3740250256   -0.9004108660
