3    
Iteration 0 Energy -74.60546633
O       -0.0859698290   -0.0636457750    0.0449685530
H        0.3752603130    1.4106024070    0.4619326450
H        0.9807309630   -0.4775211190   -1.2123526540
3    
Iteration 1 Energy -74.60670036
O       -0.1432255421   -0.1044411242    0.0758428646
H        0.4266520308    1.3613502155    0.3843247928
H        0.9865949442   -0.3874735854   -1.1656191280
3    
Iteration 2 Energy -74.60810354
O       -0.1255964208   -0.0927711611    0.0658188763
H        0.4097395177    1.3750237778    0.4083918576
H        0.9858782922   -0.4128171286   -1.1796622028
3    
Iteration 3 Energy -74.60793784
O       -0.1239646560   -0.0920855361    0.0646617795
H        0.4076367915    1.3763773256    0.4111827649
H        0.9863492086   -0.4148563221   -1.1812960157
3    
Iteration 4 Energy -74.60783779
O       -0.1240206869   -0.0923009148    0.0645900298
H        0.4074545634    1.3763596549    0.4113461954
H        0.9865874251   -0.4146232917   -1.1813876996
3    
Iteration 5 Energy -74.60780372
O       -0.1240414625   -0.0924015832    0.0645513259
H        0.4073611846    1.3763311776    0.4114186455
H        0.9867015180   -0.4144941743   -1.1814214477
3    
Iteration 6 Energy -74.60779228
O       -0.1240452259   -0.0924321189    0.0645371543
H        0.4073300316    1.3763266025    0.4114456688
H        0.9867363742   -0.4144590899   -1.1814343016
3    
Iteration 7 Energy -74.60778835
O       -0.1240466646   -0.0924365949    0.0645359142
H        0.4073281824    1.3763305780    0.4114497294
H        0.9867396166   -0.4144586100   -1.1814371250
3    
Iteration 8 Energy -74.60778696
O       -0.1240474076   -0.0924363833    0.0645367356
H        0.4073302607    1.3763333972    0.4114493765
H        0.9867382423   -0.4144616579   -1.1814375965
3    
Iteration 9 Energy -74.60778647
O       -0.1240477603   -0.0924357128    0.0645374511
H        0.4073318388    1.3763348170    0.4114486882
H        0.9867369775   -0.4144637659   -1.1814376254
