3    
Iteration 0 Energy -74.45395460
O       -0.0859698290   -0.0636457750    0.0449685530
H        0.4617409640    1.6870239410    0.5401134130
H        1.1062251740   -0.5262123350   -1.3602727970
3    
Iteration 1 Energy -74.45506341
O       -0.1208895245   -0.0894977853    0.0632340083
H        0.4915707990    1.6574699030    0.4945053792
H        1.1113150046   -0.4708062973   -1.3329302237
3    
Iteration 2 Energy -74.45550674
O       -0.1356280712   -0.1004020160    0.0709472636
H        0.5045415605    1.6436757937    0.4741257709
H        1.1130824696   -0.4461080881   -1.3202638245
3    
Iteration 3 Energy -74.45594701
O       -0.1450122296   -0.1073455329    0.0758577900
H        0.5129893685    1.6342324031    0.4605856171
H        1.1140180874   -0.4297214388   -1.3116340921
3    
Iteration 4 Energy -74.45635276
O       -0.1523704662   -0.1127937231    0.0797059501
H        0.5196990555    1.6265307581    0.4497142266
H        1.1146654279   -0.4165720044   -1.3046107111
3    
Iteration 5 Energy -74.45675031
O       -0.1651195892   -0.1222353015    0.0863722170
H        0.5312603247    1.6134157740    0.4310722090
H        1.1158505107   -0.3940163206   -1.2926346322
3    
Iteration 6 Energy -74.45734483
O       -0.1671020625   -0.1236963212    0.0874129687
H        0.5333549308    1.6103541185    0.4272963379
H        1.1157377270   -0.3894938006   -1.2898994376
3    
Iteration 7 Energy -74.45765360
O       -0.1695466338   -0.1255118151    0.0886882112
H        0.5357159904    1.6073559858    0.4233034150
H        1.1158206012   -0.3846803207   -1.2871816679
3    
Iteration 8 Energy -74.45788376
O       -0.1726609403   -0.1278207209    0.0903151412
H        0.5386404657    1.6038230068    0.4184626108
H        1.1160097684   -0.3788385795   -1.2839677283
3    
Iteration 9 Energy -74.45812984
O       -0.1767843127   -0.1308735952    0.0924716940
H        0.5424861528    1.5992293174    0.4121273201
H        1.1162868167   -0.3711921711   -1.2797889254
3    
Iteration 10 Energy -74.45846321
O       -0.1825090222   -0.1351099495    0.0954670711
H        0.5478296964    1.5928289147    0.4033143942
H        1.1166673853   -0.3605555218   -1.2739713059
3    
Iteration 11 Energy -74.45899727
O       -0.1909447297   -0.1413515896    0.0998815170
H        0.5557413074    1.5832615431    0.3902132419
H        1.1171909110   -0.3447466178   -1.2652845512
3    
Iteration 12 Energy -74.46003091
O       -0.2043608569   -0.1512776750    0.1069026866
H        0.5684369619    1.5676514827    0.3690405231
H        1.1179109105   -0.3192105458   -1.2511329573
3    
Iteration 13 Energy -74.46269178
O       -0.2279366569   -0.1687189354    0.1192418498
H        0.5911183365    1.5389382396    0.3307351386
H        1.1188050232   -0.2730560605   -1.2251667305
3    
Iteration 14 Energy -74.47354421
O       -0.2752186831   -0.2036911866    0.1439924392
H        0.6382096331    1.4758374228    0.2491796414
H        1.1189955858   -0.1749829539   -1.1683617971
3    
Iteration 15 Energy -74.56341370
O       -0.3868327935   -0.2861998821    0.2024460167
H        0.7602042288    1.2896345420    0.0246923683
H        1.1086151227    0.0937287319   -1.0023281117
3    
Iteration 16 Energy -74.75436735
O       -0.4681227991   -0.3456883522    0.2453692137
H        0.8771482947    1.0565735690   -0.2222079549
H        1.0729610710    0.3862781879   -0.7983509843
3    
Iteration 17 Energy -73.19332007
O       -0.5091150833   -0.3739322687    0.2680335873
H        0.9759726963    0.8012452424   -0.4647743878
H        1.0151289225    0.6698503985   -0.5784489151
3    
Iteration 18 Energy -74.66875369
O       -0.4318076960   -0.3163309840    0.2278102798
H        0.9051901225    0.8797994245   -0.3516557551
H        1.0086041087    0.5336949313   -0.6513442402
3    
Iteration 19 Energy -74.69293588
O       -0.4322263401   -0.3246742515    0.2233613827
H        0.9005914371    0.8905729042   -0.3410120291
H        1.0136214120    0.5312646928   -0.6575390414
3    
Iteration 20 Energy -74.77108699
O       -0.3684208366   -0.4628757659    0.0822348733
H        0.7667255204    0.9292915689   -0.1909129897
H        1.0836816208    0.6307473359   -0.6665113891
3    
Iteration 21 Energy -74.76309126
O       -0.1999769841   -0.7163401362   -0.2256114761
H        0.5327008815    0.9143560110    0.0234616700
H        1.1492622544    0.8991471264   -0.5730395872
3    
Iteration 22 Energy -74.77746141
O       -0.1017253132   -0.7774192156   -0.3547607852
H        0.5390587167    0.9350643550    0.0294339303
H        1.0446527482    0.9395178619   -0.4498625383
3    
Iteration 23 Energy -74.77669568
O        0.0539215951   -0.8452521269   -0.5425442492
H        0.4538026026    0.9037189395    0.0924715583
H        0.9742618521    1.0386960874   -0.3251166744
3    
Iteration 24 Energy -74.77845937
O        0.3553153868   -0.8950503169   -0.8587767649
H        0.3003686808    0.7921610158    0.1738620028
H        0.8263017837    1.2000520012   -0.0902745674
3    
Iteration 25 Energy -74.77700229
O        0.3776343954   -0.8143722923   -0.8331683698
H        0.2762175381    0.8021045130    0.2009688214
H        0.8058149091    1.0287524548   -0.1685981763
3    
Iteration 26 Energy -74.77807907
O        0.3846639109   -0.7902933254   -0.8258640298
H        0.2549227436    0.8020154047    0.2190366144
H        0.8130506695    0.9806835839   -0.2012746772
3    
Iteration 27 Energy -74.77801041
O        0.3862506552   -0.7841368287   -0.8237964608
H        0.2536707926    0.8014647317    0.2193938070
H        0.8111291223    0.9689212164   -0.2057670599
3    
Iteration 28 Energy -74.77799094
O        0.3867879876   -0.7824452392   -0.8233237381
H        0.2531182536    0.8010620365    0.2195658934
H        0.8106069848    0.9659406706   -0.2068846575
3    
Iteration 29 Energy -74.77798570
O        0.3870619011   -0.7819545855   -0.8232986825
H        0.2528216750    0.8007952256    0.2196739791
H        0.8103557203    0.9652261056   -0.2070429314
3    
Iteration 30 Energy -74.77798432
O        0.3873257952   -0.7817674705   -0.8234405436
H        0.2525406674    0.8005602705    0.2198113108
H        0.8101089528    0.9650865524   -0.2068967359
3    
Iteration 31 Energy -74.77798404
O        0.3888973868   -0.7812688801   -0.8246440752
H        0.2508836483    0.7993639009    0.2207688346
H        0.8086218881    0.9652845569   -0.2054484606
