3    
Iteration 0 Energy -74.94133089
O       -0.0859698290   -0.0636457750    0.0449685530
H        0.1734721260    0.7656188270    0.2795108550
H        0.6042483300   -0.3314474680   -0.7685922280
3    
Iteration 1 Energy -74.94161771
O       -0.1092976455   -0.0788116874    0.0583953648
H        0.1962009247    0.7465325861    0.2467503650
H        0.6048477507   -0.2971953425   -0.7492586556
3    
Iteration 2 Energy -74.94202589
O       -0.0991059722   -0.0722843730    0.0524739392
H        0.1861472530    0.7553387827    0.2614488474
H        0.6047098263   -0.3125289206   -0.7580357061
3    
Iteration 3 Energy -74.94202631
O       -0.0993953448   -0.0724733169    0.0526418682
H        0.1864287396    0.7550993319    0.2610375680
H        0.6047179606   -0.3121006108   -0.7577923909
