3    
Iteration 0 Energy -74.54585423
O       -0.0859698290   -0.0636457750    0.0449685530
H        0.3752603130    1.4106024070    0.4619326450
H        1.1062251740   -0.5262123350   -1.3602727970
3    
Iteration 1 Energy -74.54717978
O       -0.1339021113   -0.0955569756    0.0721175475
H        0.4209523365    1.3719128047    0.3958955620
H        1.1084654142   -0.4556115345   -1.3213847180
3    
Iteration 2 Energy -74.54787724
O       -0.1270771761   -0.0938000940    0.0666325186
H        0.4106913641    1.3742113919    0.4070124514
H        1.1119014019   -0.4596670249   -1.3270165774
3    
Iteration 3 Energy -74.54794575
O       -0.1258689232   -0.0949367943    0.0648202426
H        0.4070338211    1.3735197165    0.4100970780
H        1.1143506312   -0.4578386763   -1.3282889285
3    
Iteration 4 Energy -74.54794649
O       -0.1258818650   -0.0959909996    0.0642200021
H        0.4057468263    1.3726738570    0.4108323873
H        1.1156504979   -0.4559386429   -1.3284239982
