3    
Iteration 0 Energy -74.84996784
O       -0.0859698290   -0.0636457750    0.0449685530
H        0.1446452420    0.6734783160    0.2534505990
H        0.4160070140   -0.2584106430   -0.5467120150
3    
Iteration 1 Energy -74.85031127
O       -0.0662421752   -0.0490448747    0.0346524320
H        0.1284278174    0.6879836267    0.2773303794
H        0.4124973467   -0.2875174979   -0.5602755318
3    
Iteration 2 Energy -74.85066168
O       -0.0742146270   -0.0549495125    0.0388245637
H        0.1348805190    0.6824605444    0.2679656293
H        0.4140176712   -0.2760900188   -0.5550829203
3    
Iteration 3 Energy -74.85066297
O       -0.0747382095   -0.0553412856    0.0391016325
H        0.1353064614    0.6820815370    0.2673313783
H        0.4141161446   -0.2753197575   -0.5547256929
3    
Iteration 4 Energy -74.85066298
O       -0.0747122731   -0.0553258831    0.0390909852
H        0.1352829289    0.6820997815    0.2673570757
H        0.4141144981   -0.2753538870   -0.5547406985
