3    
Iteration 0 Energy -74.86369551
O       -0.0859698290   -0.0636457750    0.0449685530
H        0.2022990090    0.8577593390    0.3055711110
H        0.7924896470   -0.4044842930   -0.9904724410
3    
Iteration 1 Energy -74.86352478
O       -0.1427350486   -0.1065599020    0.0734754888
H        0.2779457992    0.7925017272    0.1962106435
H        0.7830488740   -0.3503984182   -0.9500456853
3    
Iteration 2 Energy -74.86630436
O       -0.1143837986   -0.0755541414    0.0627837463
H        0.2574302866    0.8350314353    0.2425184820
H        0.7791309786   -0.3871661547   -0.9678537298
3    
Iteration 3 Energy -74.86610781
O       -0.1121234823   -0.0698774046    0.0647295213
H        0.2624533780    0.8402960025    0.2415455424
H        0.7754892510   -0.3926368105   -0.9683401444
3    
Iteration 4 Energy -74.86604318
O       -0.1117429154   -0.0661109148    0.0659876516
H        0.2675959490    0.8427641083    0.2393271799
H        0.7727276502   -0.3957541131   -0.9678600225
3    
Iteration 5 Energy -74.86602457
O       -0.1119002519   -0.0651015180    0.0663395005
H        0.2696232500    0.8430464576    0.2386984602
H        0.7717926362   -0.3963999893   -0.9677215815
3    
Iteration 6 Energy -74.86602039
O       -0.1120404692   -0.0649839622    0.0662855204
H        0.2701578202    0.8428220769    0.2389512452
H        0.7715954320   -0.3963465795   -0.9678209769
3    
Iteration 7 Energy -74.86601951
O       -0.1123602805   -0.0647896718    0.0660313642
H        0.2713394941    0.8421444178    0.2399426767
H        0.7711644131   -0.3961049046   -0.9681895965
