3    
Iteration 0 Energy -74.77885948
O       -0.0859698290   -0.0636457750    0.0449685530
H        0.1734721260    0.7656188270    0.2795108550
H        0.9179838580   -0.4531755100   -1.1383925830
3    
Iteration 1 Energy -74.77982462
O       -0.1404410507   -0.0978230218    0.0761045676
H        0.2558067096    0.7052855450    0.1668974023
H        0.9040521796   -0.4059202344   -1.0976538681
3    
Iteration 2 Energy -74.78161289
O       -0.1172594110   -0.0756805552    0.0646369406
H        0.2341784909    0.7398633907    0.2102689667
H        0.9032754291   -0.4342803721   -1.1136058212
3    
Iteration 3 Energy -74.78152446
O       -0.1144762463   -0.0700805150    0.0658726095
H        0.2378469431    0.7452743694    0.2109679370
H        0.9000495740   -0.4397858586   -1.1145731205
3    
Iteration 4 Energy -74.78148156
O       -0.1136223457   -0.0661085983    0.0670394084
H        0.2426476690    0.7480000113    0.2095058462
H        0.8972221984   -0.4431346064   -1.1144254460
3    
Iteration 5 Energy -74.78146773
O       -0.1136281459   -0.0642101871    0.0675428466
H        0.2457464716    0.7487657112    0.2086831582
H        0.8956756261   -0.4444666277   -1.1142657877
3    
Iteration 6 Energy -74.78146455
O       -0.1137948445   -0.0640351808    0.0674853308
H        0.2464285729    0.7485079672    0.2089522601
H        0.8954178715   -0.4444252318   -1.1143715558
3    
Iteration 7 Energy -74.78146400
O       -0.1141377438   -0.0638211015    0.0672315652
H        0.2477213360    0.7477712195    0.2099762480
H        0.8949427915   -0.4441638226   -1.1147566003
