3    
Iteration 0 Energy -74.80402646
O       -0.0859698290   -0.0636457750    0.0449685530
H        0.2887796610    1.1341808730    0.3837518780
H        0.7924896470   -0.4044842930   -0.9904724410
3    
Iteration 1 Energy -74.80424068
O       -0.1453741668   -0.1054989370    0.0772766052
H        0.3428770043    1.0821187192    0.3019319471
H        0.7977966475   -0.3105689872   -0.9409605811
3    
Iteration 2 Energy -74.80740989
O       -0.1172113503   -0.0856384293    0.0619706207
H        0.3173592072    1.1060760644    0.3401774696
H        0.7951515958   -0.3543868625   -0.9639001202
3    
Iteration 3 Energy -74.80690612
O       -0.1164387193   -0.0851628757    0.0615104102
H        0.3164814152    1.1075695326    0.3418819806
H        0.7952567299   -0.3563559146   -0.9651444298
3    
Iteration 4 Energy -74.80670367
O       -0.1165342114   -0.0852379400    0.0615578202
H        0.3165076222    1.1078135674    0.3419987661
H        0.7953259864   -0.3565249172   -0.9653086353
3    
Iteration 5 Energy -74.80663250
O       -0.1165891167   -0.0852716171    0.0615905790
H        0.3165404322    1.1078823770    0.3420074531
H        0.7953480455   -0.3565600903   -0.9653500927
3    
Iteration 6 Energy -74.80660801
O       -0.1166034816   -0.0852804847    0.0615991142
H        0.3165446738    1.1079078744    0.3420182123
H        0.7953581308   -0.3565767612   -0.9653693990
3    
Iteration 7 Energy -74.80659949
O       -0.1166078493   -0.0852839641    0.0616012453
H        0.3165437608    1.1079160519    0.3420238262
H        0.7953633715   -0.3565815035   -0.9653771564
3    
Iteration 8 Energy -74.80659652
O       -0.1166093435   -0.0852854322    0.0616018095
H        0.3165428627    1.1079185554    0.3420261273
H        0.7953657227   -0.3565825834   -0.9653800351
3    
Iteration 9 Energy -74.80659549
O       -0.1166098824   -0.0852859070    0.0616020401
H        0.3165425834    1.1079194191    0.3420268890
H        0.7953665090   -0.3565830083   -0.9653810381
3    
Iteration 10 Energy -74.80659513
O       -0.1166100788   -0.0852860685    0.0616021271
H        0.3165424851    1.1079197085    0.3420271452
H        0.7953667749   -0.3565831678   -0.9653813913
