3    
Iteration 0 Energy -74.72326357
O       -0.0859698290   -0.0636457750    0.0449685530
H        0.1446452420    0.6734783160    0.2534505990
H        0.9179838580   -0.4531755100   -1.1383925830
3    
Iteration 1 Energy -74.72313430
O       -0.1390598703   -0.0930583415    0.0772475337
H        0.2297194777    0.6143034993    0.1392077214
H        0.9019917653   -0.4088818008   -1.0974106365
3    
Iteration 2 Energy -74.72568730
O       -0.1135761455   -0.0740984968    0.0616001115
H        0.1976738836    0.6508060479    0.1938459687
H        0.9052726630   -0.4366129588   -1.1169060282
3    
Iteration 3 Energy -74.72564134
O       -0.1110336523   -0.0700724027    0.0625100317
H        0.1995495136    0.6551459175    0.1951306272
H        0.9030635574   -0.4407958964   -1.1180032892
3    
Iteration 4 Energy -74.72560265
O       -0.1100585138   -0.0669819717    0.0634944576
H        0.2029304897    0.6575509277    0.1942155592
H        0.9008854433   -0.4435435576   -1.1180379310
3    
Iteration 5 Energy -74.72559032
O       -0.1096542083   -0.0643791459    0.0642273490
H        0.2064498474    0.6591217141    0.1931644265
H        0.8989235268   -0.4456302722   -1.1178787534
3    
Iteration 6 Energy -74.72558709
O       -0.1097939638   -0.0641883491    0.0641828817
H        0.2069750406    0.6589945413    0.1932743613
H        0.8987307592   -0.4456620344   -1.1179114571
3    
Iteration 7 Energy -74.72558603
O       -0.1099788177   -0.0640669274    0.0640485409
H        0.2075600434    0.6586785547    0.1936946502
H        0.8985305934   -0.4455646567   -1.1180543729
3    
Iteration 8 Energy -74.72558595
O       -0.1102230189   -0.0639361328    0.0638181938
H        0.2084434534    0.6581131891    0.1945716791
H        0.8982108076   -0.4453471837   -1.1183775968
