3    
Iteration 0 Energy -74.67278410
O       -0.0859698290   -0.0636457750    0.0449685530
H        0.2887796610    1.1341808730    0.3837518780
H        1.0434780680   -0.5018667270   -1.2863127260
3    
Iteration 1 Energy -74.67383286
O       -0.1466677585   -0.0995997622    0.0819375466
H        0.3519247395    1.0863455342    0.2957631501
H        1.0410309027   -0.4180774009   -1.2352930031
3    
Iteration 2 Energy -74.67576948
O       -0.1238427519   -0.0888802807    0.0664082645
H        0.3243373058    1.1010899741    0.3306283108
H        1.0457932954   -0.4435413335   -1.2546288795
3    
Iteration 3 Energy -74.67546995
O       -0.1225216556   -0.0896276000    0.0647146756
H        0.3211340710    1.1016283805    0.3339945818
H        1.0476753930   -0.4433324322   -1.2563015611
3    
Iteration 4 Energy -74.67532798
O       -0.1225591473   -0.0903810902    0.0643125701
H        0.3203076618    1.1013410105    0.3346153360
H        1.0485392506   -0.4422915885   -1.2565202066
3    
Iteration 5 Energy -74.67527781
O       -0.1226402434   -0.0907176042    0.0641943242
H        0.3200613340    1.1011698662    0.3347506716
H        1.0488666223   -0.4417839505   -1.2565372953
3    
Iteration 6 Energy -74.67526185
O       -0.1226520667   -0.0907493634    0.0641871241
H        0.3200669091    1.1011896808    0.3347568524
H        1.0488728249   -0.4417720194   -1.2565362800
3    
Iteration 7 Energy -74.67525624
O       -0.1226526630   -0.0907524486    0.0641858832
H        0.3200720938    1.1012038281    0.3347601117
H        1.0488681849   -0.4417830959   -1.2565383032
3    
Iteration 8 Energy -74.67525417
O       -0.1226528107   -0.0907533397    0.0641854901
H        0.3200734763    1.1012087695    0.3347616461
H        1.0488668913   -0.4417871644   -1.2565394489
3    
Iteration 9 Energy -74.67525341
O       -0.1226530941   -0.0907539706    0.0641853796
H        0.3200737598    1.1012101040    0.3347621367
H        1.0488668444   -0.4417878813   -1.2565398336
