3    
Iteration 0 Energy -74.82878403
O       -0.0859698290   -0.0636457750    0.0449685530
H        0.2022990090    0.8577593390    0.3055711110
H        0.8552367520   -0.4288299020   -1.0644325120
3    
Iteration 1 Energy -74.82964867
O       -0.1421997853   -0.1042159604    0.0743015024
H        0.2800711424    0.7943202773    0.1952670497
H        0.8444656690   -0.3768252725   -1.0239469640
3    
Iteration 2 Energy -74.83159888
O       -0.1176089057   -0.0765820385    0.0650407914
H        0.2636127191    0.8319985180    0.2350854850
H        0.8403994034   -0.4094813524   -1.0392258184
3    
Iteration 3 Energy -74.83144531
O       -0.1149965115   -0.0701413157    0.0668524017
H        0.2689538026    0.8378611687    0.2344792628
H        0.8364226249   -0.4156330369   -1.0398285034
3    
Iteration 4 Energy -74.83138906
O       -0.1144765254   -0.0659392547    0.0682000568
H        0.2746124640    0.8405342732    0.2322537317
H        0.8333332473   -0.4190706161   -1.0393895529
3    
Iteration 5 Energy -74.83137222
O       -0.1146680871   -0.0646768351    0.0685889290
H        0.2771065174    0.8408353465    0.2315645504
H        0.8321819478   -0.4198523583   -1.0392393849
3    
Iteration 6 Energy -74.83136866
O       -0.1148434611   -0.0645229486    0.0685222021
H        0.2778081712    0.8405378605    0.2318923287
H        0.8319187606   -0.4197805554   -1.0393698975
3    
Iteration 7 Energy -74.83136802
O       -0.1152569556   -0.0642722594    0.0681965715
H        0.2793632572    0.8396364974    0.2331935011
H        0.8313478187   -0.4194552056   -1.0398576301
