3    
Iteration 0 Energy -74.95312200
O       -0.0859698290   -0.0636457750    0.0449685530
H        0.2022990090    0.8577593390    0.3055711110
H        0.6042483300   -0.3314474680   -0.7685922280
3    
Iteration 1 Energy -74.95359908
O       -0.1171670755   -0.0853127487    0.0621187553
H        0.2311245062    0.8304645416    0.2622310454
H        0.6066204380   -0.2824857522   -0.7424024949
3    
Iteration 2 Energy -74.95426186
O       -0.1036189817   -0.0759875619    0.0546231917
H        0.2183863768    0.8431095853    0.2817200536
H        0.6058104999   -0.3044560723   -0.7543959401
3    
Iteration 3 Energy -74.95426254
O       -0.1040388865   -0.0762796007    0.0548550045
H        0.2187752773    0.8427364264    0.2811304067
H        0.6058416811   -0.3037909912   -0.7540381571
