3    
Iteration 0 Energy -74.70462390
O       -0.0859698290   -0.0636457750    0.0449685530
H        0.3464334290    1.3184618950    0.4358723900
H        0.8552367520   -0.4288299020   -1.0644325120
3    
Iteration 1 Energy -74.70555002
O       -0.1452342791   -0.1075209928    0.0759681447
H        0.3978464597    1.2656015555    0.3561476341
H        0.8630881678   -0.3320943563   -1.0157073640
3    
Iteration 2 Energy -74.70778234
O       -0.1215728901   -0.0899774659    0.0636068054
H        0.3775006688    1.2860360663    0.3874160140
H        0.8597725331   -0.3700724140   -1.0346144045
3    
Iteration 3 Energy -74.70741439
O       -0.1203537133   -0.0891048317    0.0629516732
H        0.3762851251    1.2876857169    0.3895332706
H        0.8597688644   -0.3725947259   -1.0360765340
3    
Iteration 4 Energy -74.70724834
O       -0.1204436592   -0.0891729515    0.0629978240
H        0.3762990356    1.2878482898    0.3896144633
H        0.8598448643   -0.3726892053   -1.0362038841
3    
Iteration 5 Energy -74.70719061
O       -0.1205417779   -0.0892428784    0.0630507151
H        0.3763624055    1.2878440324    0.3895515731
H        0.8598795787   -0.3726150469   -1.0361938914
3    
Iteration 6 Energy -74.70717227
O       -0.1205240608   -0.0892276648    0.0630426592
H        0.3763400916    1.2878869472    0.3895977717
H        0.8598841426   -0.3726732006   -1.0362320397
3    
Iteration 7 Energy -74.70716520
O       -0.1205128011   -0.0892189661    0.0630369669
H        0.3763266723    1.2879068863    0.3896221385
H        0.8598862521   -0.3727018747   -1.0362507232
3    
Iteration 8 Energy -74.70716236
O       -0.1205135122   -0.0892193839    0.0630373947
H        0.3763257233    1.2879100717    0.3896248838
H        0.8598878728   -0.3727046710   -1.0362539033
3    
Iteration 9 Energy -74.70716135
O       -0.1205141719   -0.0892198787    0.0630377271
H        0.3763256217    1.2879107564    0.3896253700
H        0.8598885993   -0.3727048865   -1.0362547286
3    
Iteration 10 Energy -74.70716101
O       -0.1205144212   -0.0892200993    0.0630378290
H        0.3763255329    1.2879109307    0.3896255479
H        0.8598889035   -0.3727048652   -1.0362550146
