3    
Iteration 0 Energy -74.83800869
O        0.0000000000    0.0000000000    0.0000000000
H        0.2760264000    0.8822741000    0.6495351000
H        0.1036576000   -0.7768012000   -0.5501827000
3    
Iteration 1 Energy -74.89804404
O       -0.0698727162    0.0410502086    0.0250433580
H        0.2963321517    0.7875141524    0.5828990567
H        0.1532250371   -0.7230914777   -0.5085900169
3    
Iteration 2 Energy -74.94773048
O       -0.1917108159    0.0739226508    0.0409732777
H        0.3395517602    0.6741968008    0.5043987174
H        0.2318440837   -0.6426465831   -0.4460195924
3    
Iteration 3 Energy -74.95249268
O       -0.3534137334    0.0779103598    0.0337081428
H        0.4015129404    0.5442344437    0.4151428008
H        0.3315870779   -0.5166719806   -0.3494985930
3    
Iteration 4 Energy -74.96582905
O       -0.2987080310    0.0707057422    0.0319697720
H        0.3847962371    0.6255370374    0.4723589672
H        0.2935981396   -0.5907699509   -0.4049763838
3    
Iteration 5 Energy -74.96589975
O       -0.2960388863    0.0688971902    0.0308407256
H        0.3842442419    0.6311603073    0.4763533421
H        0.2914809157   -0.5945846553   -0.4078417063
3    
Iteration 6 Energy -74.96590120
O       -0.2959339669    0.0688786918    0.0308339261
H        0.3842837122    0.6319968428    0.4769543989
H        0.2913364103   -0.5954026775   -0.4084359609
3    
Iteration 7 Energy -74.96590122
O       -0.2959493994    0.0688275333    0.0307962040
H        0.3842933125    0.6319846802    0.4769455288
H        0.2913421303   -0.5953393404   -0.4083893664
